 Gaussian 03, Revision E.01,
 Gaussian 03:  EM64L-G03RevE.01 11-Sep-2007

 ----------------------------------------------------------------------
 #p nmr=giao ub3lyp/gen scf=tight guess=mix scrf=pcm geom=connectivity
 integral=(grid=ultrafine)
 ----------------------------------------------------------------------

 --------------------------------------------
 Anthraquinone-2,6-disulfonate radical anion.
 --------------------------------------------
 Symbolic Z-matrix:
 Charge = -3 Multiplicity = 2

                         Standard orientation:
 ---------------------------------------------------------------------
 Center     Atomic     Atomic              Coordinates (Angstroms)
 Number     Number      Type              X           Y           Z
 ---------------------------------------------------------------------
    1          6             0       -3.763671    0.270694    0.000000
    2          6             0       -2.782220   -0.715317   -0.000001
    3          6             0       -1.399361   -0.375475   -0.000002
    4          6             0       -1.019217    1.009225   -0.000001
    5          6             0       -2.046969    1.990302    0.000000
    6          6             0       -3.392127    1.641171    0.000000
    7          1             0       -3.047888   -1.767181   -0.000002
    8          1             0       -1.737315    3.032201    0.000000
    9          1             0       -4.179221    2.388642    0.000003
   10          6             0        0.387691    1.445690   -0.000003
   11          6             0       -0.387691   -1.445688   -0.000003
   12          8             0        0.702831    2.672597   -0.000005
   13          8             0       -0.702831   -2.672595   -0.000004
   14          6             0        1.399361    0.375476   -0.000002
   15          6             0        1.019217   -1.009224   -0.000002
   16          6             0        2.782220    0.715317   -0.000001
   17          6             0        2.046968   -1.990301   -0.000001
   18          6             0        3.763671   -0.270694    0.000000
   19          1             0        3.047889    1.767182   -0.000002
   20          6             0        3.392126   -1.641171    0.000000
   21          1             0        1.737314   -3.032200   -0.000001
   22          1             0        4.179220   -2.388642    0.000002
   23         16             0        5.551552    0.168357    0.000002
   24         16             0       -5.551552   -0.168358    0.000002
   25          8             0        6.288019   -1.160351    0.000002
   26          8             0        5.785304    0.971516    1.263400
   27          8             0        5.785306    0.971517   -1.263396
   28          8             0       -6.288020    1.160349    0.000007
   29          8             0       -5.785306   -0.971514   -1.263398
   30          8             0       -5.785303   -0.971522    1.263397
 ---------------------------------------------------------------------

 SCF Done:  E(UB+HF-LYP) =  -1935.91347812     A.U. after   22 cycles

  1  C    Isotropic =    33.4335   Anisotropy =   133.3701

  2  C    Isotropic =    62.6442   Anisotropy =   179.0469

  3  C    Isotropic =    55.1459   Anisotropy =   164.5388

  4  C    Isotropic =    54.6672   Anisotropy =   169.4104

  5  C    Isotropic =    59.6690   Anisotropy =   182.8117

  6  C    Isotropic =    62.3956   Anisotropy =   160.2471

  7  H    Isotropic =    22.7639   Anisotropy =    11.3080

  8  H    Isotropic =    23.0965   Anisotropy =     8.6995

  9  H    Isotropic =    23.6429   Anisotropy =     9.5278

 10  C    Isotropic =    17.2604   Anisotropy =   142.0502

 11  C    Isotropic =    17.2611   Anisotropy =   142.0496

 12  O    Isotropic =   -60.0773   Anisotropy =   690.7365

 13  O    Isotropic =   -60.0688   Anisotropy =   690.7237

 14  C    Isotropic =    55.1463   Anisotropy =   164.5380

 15  C    Isotropic =    54.6676   Anisotropy =   169.4093

 16  C    Isotropic =    62.6446   Anisotropy =   179.0470

 17  C    Isotropic =    59.6701   Anisotropy =   182.8115

 18  C    Isotropic =    33.4339   Anisotropy =   133.3699

 19  H    Isotropic =    22.7639   Anisotropy =    11.3078

 20  C    Isotropic =    62.3956   Anisotropy =   160.2462

 21  H    Isotropic =    23.0965   Anisotropy =     8.6995

 22  H    Isotropic =    23.6430   Anisotropy =     9.5278

 23  S    Isotropic =   212.0749   Anisotropy =   111.9775

 24  S    Isotropic =   212.0750   Anisotropy =   111.9778

 25  O    Isotropic =    99.4960   Anisotropy =   105.4406

 26  O    Isotropic =    79.6766   Anisotropy =   112.3049

 27  O    Isotropic =    79.6734   Anisotropy =   112.3154

 28  O    Isotropic =    99.4962   Anisotropy =   105.4405

 29  O    Isotropic =    79.6742   Anisotropy =   112.3156

 30  O    Isotropic =    79.6770   Anisotropy =   112.3045

 The electronic state is 2-A.
 Alpha  occ. eigenvalues --  -89.10300 -89.10300 -19.11190 -19.11190 -19.11189
 Alpha  occ. eigenvalues --  -19.11189 -19.11119 -19.11119 -19.10328 -19.10328
 Alpha  occ. eigenvalues --  -10.25215 -10.25215 -10.22057 -10.22056 -10.20399
 Alpha  occ. eigenvalues --  -10.20399 -10.20282 -10.20282 -10.20221 -10.20221
 Alpha  occ. eigenvalues --  -10.20046 -10.20046 -10.19658 -10.19658  -8.12875
 Alpha  occ. eigenvalues --   -8.12875  -6.09242  -6.09242  -6.09234  -6.09234
 Alpha  occ. eigenvalues --   -6.09117  -6.09117  -1.08921  -1.08921  -0.99917
 Alpha  occ. eigenvalues --   -0.99679  -0.95691  -0.95691  -0.95624  -0.95624
 Alpha  occ. eigenvalues --   -0.86171  -0.85263  -0.78969  -0.75642  -0.75210
 Alpha  occ. eigenvalues --   -0.74598  -0.67384  -0.66133  -0.62847  -0.61697
 Alpha  occ. eigenvalues --   -0.58573  -0.57470  -0.55547  -0.52986  -0.51653
 Alpha  occ. eigenvalues --   -0.49002  -0.47339  -0.46729  -0.46429  -0.44904
 Alpha  occ. eigenvalues --   -0.44890  -0.44810  -0.44390  -0.42801  -0.42515
 Alpha  occ. eigenvalues --   -0.42383  -0.42021  -0.41398  -0.41052  -0.39702
 Alpha  occ. eigenvalues --   -0.37963  -0.37046  -0.36800  -0.35377  -0.34704
 Alpha  occ. eigenvalues --   -0.33752  -0.32571  -0.32561  -0.32518  -0.32508
 Alpha  occ. eigenvalues --   -0.29757  -0.29666  -0.28795  -0.28745  -0.28576
 Alpha  occ. eigenvalues --   -0.28444  -0.26583  -0.25563  -0.25558  -0.25305
 Alpha  occ. eigenvalues --   -0.25280  -0.24781  -0.24682  -0.23972  -0.14437
 Alpha virt. eigenvalues --   -0.06057  -0.02915  -0.01110   0.02251   0.03003
 Alpha virt. eigenvalues --    0.03706   0.03766   0.04169   0.05221   0.05555
 Alpha virt. eigenvalues --    0.05770   0.06065   0.06076   0.06221   0.06733

  Beta  occ. eigenvalues --  -89.10301 -89.10301 -19.11183 -19.11183 -19.11183
  Beta  occ. eigenvalues --  -19.11183 -19.11121 -19.11121 -19.09774 -19.09774
  Beta  occ. eigenvalues --  -10.25043 -10.25043 -10.22008 -10.22008 -10.20336
  Beta  occ. eigenvalues --  -10.20336 -10.20277 -10.20277 -10.20131 -10.20131
  Beta  occ. eigenvalues --  -10.19986 -10.19986 -10.19661 -10.19661  -8.12876
  Beta  occ. eigenvalues --   -8.12876  -6.09242  -6.09242  -6.09235  -6.09235
  Beta  occ. eigenvalues --   -6.09119  -6.09119  -1.08916  -1.08915  -0.98910
  Beta  occ. eigenvalues --   -0.98645  -0.95677  -0.95677  -0.95622  -0.95622
  Beta  occ. eigenvalues --   -0.85908  -0.85144  -0.78571  -0.75396  -0.75081
  Beta  occ. eigenvalues --   -0.74400  -0.66697  -0.65984  -0.62653  -0.61540
  Beta  occ. eigenvalues --   -0.58505  -0.57360  -0.55273  -0.52806  -0.51551
  Beta  occ. eigenvalues --   -0.48894  -0.47121  -0.46654  -0.46269  -0.44880
  Beta  occ. eigenvalues --   -0.44872  -0.44766  -0.44329  -0.42761  -0.42477
  Beta  occ. eigenvalues --   -0.42228  -0.40953  -0.40814  -0.40742  -0.39477
  Beta  occ. eigenvalues --   -0.36738  -0.36606  -0.35568  -0.35329  -0.33694
  Beta  occ. eigenvalues --   -0.33589  -0.32556  -0.32526  -0.32511  -0.32498
  Beta  occ. eigenvalues --   -0.29621  -0.29097  -0.28786  -0.28736  -0.28531
  Beta  occ. eigenvalues --   -0.28388  -0.25376  -0.25296  -0.25294  -0.24632
  Beta  occ. eigenvalues --   -0.24517  -0.24256  -0.24157  -0.23450
  Beta virt. eigenvalues --   -0.08510  -0.05108  -0.01830  -0.00871   0.02291
  Beta virt. eigenvalues --    0.03014   0.03735   0.03798   0.04991   0.05239
  Beta virt. eigenvalues --    0.05578   0.06026   0.06109   0.06260   0.06746

 Mulliken atomic charges:
              1
     1  C    0.318981
     2  C   -0.438848
     3  C    0.390093
     4  C    0.259100
     5  C   -0.299558
     6  C   -0.274784
     7  H    0.172294
     8  H    0.162363
     9  H    0.161906
    10  C   -0.266048
    11  C   -0.266079
    12  O   -0.434566
    13  O   -0.434564
    14  C    0.390124
    15  C    0.259140
    16  C   -0.438863
    17  C   -0.299593
    18  C    0.318973
    19  H    0.172296
    20  C   -0.274780
    21  H    0.162382
    22  H    0.161896
    23  S    0.710690
    24  S    0.710687
    25  O   -0.654543
    26  O   -0.653530
    27  O   -0.653545
    28  O   -0.654542
    29  O   -0.653547
    30  O   -0.653531
 Sum of Mulliken charges=  -3.00000

 Dipole moment (field-independent basis, Debye):
    X=    -0.0002    Y=     0.0002    Z=     0.0010  Tot=     0.0011
 Quadrupole moment (field-independent basis, Debye-Ang):
   XX=  -558.5504   YY=  -198.4571   ZZ=  -176.1915
   XY=   -29.2460   XZ=    -0.0001   YZ=     0.0000

 Normal termination of Gaussian 03 at Mon Mar 28 15:24:32 2011.
