 Gaussian 03, Revision E.01,

 ----------------------------------------------------------------------
 #p opt=tight b3lyp/EPR-II geom=connectivity scf=tight guess=mix integr
 al=(grid=ultrafine)
 ----------------------------------------------------------------------

 ----------------------------
 Bicyclopropylidene geometry.
 ----------------------------
 Symbolic Z-matrix:
 Charge =  0 Multiplicity = 1

 SCF Done:  E(RB+HF-LYP) =  -233.345118990     A.U. after   12 cycles
 SCF Done:  E(RB+HF-LYP) =  -233.363304325     A.U. after    9 cycles
 SCF Done:  E(RB+HF-LYP) =  -233.365687924     A.U. after    9 cycles
 SCF Done:  E(RB+HF-LYP) =  -233.365785648     A.U. after    7 cycles
 SCF Done:  E(RB+HF-LYP) =  -233.365800519     A.U. after    7 cycles
 SCF Done:  E(RB+HF-LYP) =  -233.365800896     A.U. after    6 cycles
 SCF Done:  E(RB+HF-LYP) =  -233.365800953     A.U. after    6 cycles
 Optimization completed.
    -- Stationary point found.
 Normal termination of Gaussian 03 at Sat Jun  4 14:25:14 2011.
 Gaussian 03:  EM64L-G03RevE.01 11-Sep-2007

 ----------------------------------------------------------------------
 #p nmr=(giao,spinspin) b3lyp/EPR-II geom=checkpoint scf=tight guess=re
 ad integral=(grid=ultrafine)
 ----------------------------------------------------------------------

 Bicyclopropylidene magnetic properties.
 ---------------------------------------
 Redundant internal coordinates taken from checkpoint file:
 stuff.chk
 Charge =  0 Multiplicity = 1

                         Standard orientation:
 ---------------------------------------------------------------------
 Center     Atomic     Atomic              Coordinates (Angstroms)
 Number     Number      Type              X           Y           Z
 ---------------------------------------------------------------------
    1          6             0        1.920937    0.776097    0.000000
    2          6             0        1.920937   -0.776097    0.000000
    3          6             0        0.660032    0.000000    0.000000
    4          1             0        2.222589    1.277223    0.916612
    5          1             0        2.222589    1.277223   -0.916612
    6          1             0        2.222589   -1.277223    0.916612
    7          1             0        2.222589   -1.277223   -0.916612
    8          6             0       -0.660032    0.000000    0.000000
    9          6             0       -1.920937   -0.776097    0.000000
   10          6             0       -1.920937    0.776097    0.000000
   11          1             0       -2.222589   -1.277223    0.916612
   12          1             0       -2.222589   -1.277223   -0.916612
   13          1             0       -2.222589    1.277223   -0.916612
   14          1             0       -2.222589    1.277223    0.916612
 ---------------------------------------------------------------------

 SCF Done:  E(RB+HF-LYP) =  -233.365800953     A.U. after    1 cycles

  1  C    Isotropic =   183.8144   Anisotropy =    56.3895

  2  C    Isotropic =   183.8144   Anisotropy =    56.3895

  3  C    Isotropic =    77.5102   Anisotropy =   185.2638

  4  H    Isotropic =    30.7780   Anisotropy =    12.3008

  5  H    Isotropic =    30.7780   Anisotropy =    12.3008

  6  H    Isotropic =    30.7780   Anisotropy =    12.3008

  7  H    Isotropic =    30.7780   Anisotropy =    12.3008

  8  C    Isotropic =    77.5102   Anisotropy =   185.2638

  9  C    Isotropic =   183.8144   Anisotropy =    56.3895

 10  C    Isotropic =   183.8144   Anisotropy =    56.3895

 11  H    Isotropic =    30.7780   Anisotropy =    12.3008

 12  H    Isotropic =    30.7780   Anisotropy =    12.3008

 13  H    Isotropic =    30.7780   Anisotropy =    12.3008

 14  H    Isotropic =    30.7780   Anisotropy =    12.3008

 The electronic state is 1-AG.
 Alpha  occ. eigenvalues --  -10.20880 -10.20784 -10.19670 -10.19670 -10.19651
 Alpha  occ. eigenvalues --  -10.19651  -0.86264  -0.83796  -0.65629  -0.60811
 Alpha  occ. eigenvalues --   -0.59998  -0.51870  -0.48997  -0.47810  -0.46520
 Alpha  occ. eigenvalues --   -0.37070  -0.36962  -0.35812  -0.32096  -0.29216
 Alpha  occ. eigenvalues --   -0.26088  -0.24295
 Alpha virt. eigenvalues --    0.01183   0.02844   0.03128   0.03496   0.06053
 Alpha virt. eigenvalues --    0.08221   0.10408   0.10979   0.16126   0.18127
 Alpha virt. eigenvalues --    0.19905   0.21434   0.21691   0.25541   0.25615

 Mulliken atomic charges:
              1
     1  C   -0.364440
     2  C   -0.364440
     3  C    0.079410
     4  H    0.162368
     5  H    0.162368
     6  H    0.162368
     7  H    0.162368
     8  C    0.079410
     9  C   -0.364440
    10  C   -0.364440
    11  H    0.162368
    12  H    0.162368
    13  H    0.162368
    14  H    0.162368
 Sum of Mulliken charges=   0.00000

 Dipole moment (field-independent basis, Debye):
    X=     0.0000    Y=     0.0000    Z=     0.0000  Tot=     0.0000
 Quadrupole moment (field-independent basis, Debye-Ang):
   XX=   -35.1670   YY=   -36.1530   ZZ=   -34.7565
   XY=     0.0000   XZ=     0.0000   YZ=     0.0000

 Normal termination of Gaussian 03 at Sat Jun  4 14:27:14 2011.
