 Gaussian 09, Revision A.02,
 Gaussian 09:  EM64L-G09RevA.02 11-Jun-2009

 ----------------------------------------------------------------------
 #p nmr=(giao,spinspin) b3lyp/epr-ii scf=tight integral=(grid=ultrafine
 )
 ----------------------------------------------------------------------

 ------------------------
 diacetylene single point
 ------------------------
 Symbolic Z-matrix:
 Charge =  0 Multiplicity = 1

                         Standard orientation:
 ---------------------------------------------------------------------
 Center     Atomic      Atomic             Coordinates (Angstroms)
 Number     Number       Type             X           Y           Z
 ---------------------------------------------------------------------
      1          6           0        0.000000    0.000000   -0.688441
      2          6           0        0.000000    0.000000    0.688441
      3          6           0        0.000000    0.000000   -1.910833
      4          6           0        0.000000    0.000000    1.910833
      5          1           0        0.000000    0.000000   -2.977215
      6          1           0        0.000000    0.000000    2.977215
 ---------------------------------------------------------------------

 SCF Done:  E(RB3LYP) =  -153.492464052     A.U. after    9 cycles

  1  C    Isotropic =   131.2440   Anisotropy =   233.1471

  2  C    Isotropic =   131.2440   Anisotropy =   233.1471

  3  C    Isotropic =   129.2498   Anisotropy =   226.3901

  4  C    Isotropic =   129.2498   Anisotropy =   226.3901

  5  H    Isotropic =    30.5591   Anisotropy =    15.8580

  6  H    Isotropic =    30.5591   Anisotropy =    15.8580

 The electronic state is 1-SGG.
 Alpha  occ. eigenvalues --  -10.24289 -10.24227 -10.22934 -10.22934  -0.80964
 Alpha  occ. eigenvalues --   -0.75304  -0.63846  -0.54575  -0.52054  -0.35981
 Alpha  occ. eigenvalues --   -0.35981  -0.26931  -0.26931
 Alpha virt. eigenvalues --   -0.03979  -0.03979   0.02673   0.02873   0.06249
 Alpha virt. eigenvalues --    0.09864   0.12463   0.12463   0.19104   0.19185
 Alpha virt. eigenvalues --    0.27678   0.27678   0.31892   0.33398   0.33841

 Mulliken atomic charges:
              1
     1  C    0.183039
     2  C    0.183039
     3  C   -0.372429
     4  C   -0.372429
     5  H    0.189390
     6  H    0.189390
 Sum of Mulliken atomic charges =   0.00000

 Dipole moment (field-independent basis, Debye):
    X=              0.0000    Y=              0.0000    Z=              0.0000  Tot=              0.0000
 Quadrupole moment (field-independent basis, Debye-Ang):
   XX=            -24.4198   YY=            -24.4198   ZZ=            -11.3770
   XY=              0.0000   XZ=              0.0000   YZ=              0.0000

 Normal termination of Gaussian 09 at Wed Jun 15 03:18:10 2011.
