 Gaussian 03, Revision E.01,

 -------------------------------------------------------------
 #p opt=tight b3lyp/EPR-II scf=tight integral=(grid=ultrafine)
 -------------------------------------------------------------

 -------------------------------
 Perfluoropyrene cation radical.
 -------------------------------
 Symbolic Z-matrix:
 Charge =  1 Multiplicity = 2

 SCF Done:  E(UB+HF-LYP) =  -1608.11414146     A.U. after   15 cycles
 SCF Done:  E(UB+HF-LYP) =  -1608.13112689     A.U. after   16 cycles
 SCF Done:  E(UB+HF-LYP) =  -1608.13268475     A.U. after   16 cycles
 SCF Done:  E(UB+HF-LYP) =  -1608.13273205     A.U. after   17 cycles
 SCF Done:  E(UB+HF-LYP) =  -1608.13273558     A.U. after   17 cycles
 SCF Done:  E(UB+HF-LYP) =  -1608.13273567     A.U. after   17 cycles
 SCF Done:  E(UB+HF-LYP) =  -1608.13273569     A.U. after    6 cycles
 Optimization completed.
    -- Stationary point found.
 Normal termination of Gaussian 03 at Sat Mar 12 15:47:22 2011.
 Gaussian 03:  IA64L-G03RevE.01 11-Sep-2007

 ----------------------------------------------------------------------
 #p nmr=giao b3lyp/EPR-II scf=tight integral=(grid=ultrafine) geom=chec
 kpoint
 ----------------------------------------------------------------------

 Perfluoropyrene cation radical.
 -------------------------------
 Redundant internal coordinates taken from checkpoint file:
 pfp_radical.chk
 Charge =  1 Multiplicity = 2

                         Standard orientation:
 ---------------------------------------------------------------------
 Center     Atomic     Atomic              Coordinates (Angstroms)
 Number     Number      Type              X           Y           Z
 ---------------------------------------------------------------------
    1          6             0        3.562835    0.000000   -0.000373
    2          6             0        2.860943    1.210645   -0.000311
    3          6             0        1.433522    1.240913   -0.000158
    4          6             0        0.712906    0.000000   -0.000070
    5          6             0        1.433522   -1.240913   -0.000135
    6          6             0        2.860943   -1.210645   -0.000287
    7          6             0        0.698367    2.456099   -0.000092
    8          6             0       -0.712907    0.000000    0.000079
    9          6             0       -1.433523    1.240913    0.000143
   10          6             0       -0.698367    2.456099    0.000055
   11          6             0       -2.860943    1.210645    0.000291
   12          6             0       -3.562836    0.000000    0.000373
   13          6             0       -2.860943   -1.210645    0.000310
   14          6             0       -1.433522   -1.240914    0.000163
   15          6             0       -0.698367   -2.456099    0.000095
   16          6             0        0.698368   -2.456099   -0.000049
   17          9             0       -1.314390   -3.623192    0.000167
   18          9             0        1.314393   -3.623191   -0.000108
   19          9             0        3.559116   -2.325034   -0.000353
   20          9             0        4.883311    0.000000   -0.000515
   21          9             0        3.559116    2.325035   -0.000396
   22          9             0        1.314392    3.623191   -0.000171
   23          9             0       -1.314392    3.623191    0.000105
   24          9             0       -3.559117    2.325034    0.000352
   25          9             0       -4.883311   -0.000001    0.000508
   26          9             0       -3.559117   -2.325034    0.000389
 ---------------------------------------------------------------------

 SCF Done:  E(UB+HF-LYP) =  -1608.13273569     A.U. after   15 cycles

  1  C    Isotropic =    41.0623   Anisotropy =    87.2096

  2  C    Isotropic =    25.8661   Anisotropy =   102.9846

  3  C    Isotropic =    69.4251   Anisotropy =   141.2578

  4  C    Isotropic =    71.0076   Anisotropy =   160.2827

  5  C    Isotropic =    69.4250   Anisotropy =   141.2579

  6  C    Isotropic =    25.8664   Anisotropy =   102.9858

  7  C    Isotropic =    31.0716   Anisotropy =    97.6322

  8  C    Isotropic =    71.0076   Anisotropy =   160.2828

  9  C    Isotropic =    69.4251   Anisotropy =   141.2577

 10  C    Isotropic =    31.0716   Anisotropy =    97.6321

 11  C    Isotropic =    25.8661   Anisotropy =   102.9843

 12  C    Isotropic =    41.0622   Anisotropy =    87.2096

 13  C    Isotropic =    25.8663   Anisotropy =   102.9855

 14  C    Isotropic =    69.4250   Anisotropy =   141.2578

 15  C    Isotropic =    31.0718   Anisotropy =    97.6329

 16  C    Isotropic =    31.0719   Anisotropy =    97.6330

 17  F    Isotropic =   278.3645   Anisotropy =   265.6986

 18  F    Isotropic =   278.3645   Anisotropy =   265.6983

 19  F    Isotropic =   256.0062   Anisotropy =   292.2034

 20  F    Isotropic =   318.3603   Anisotropy =   213.3898

 21  F    Isotropic =   256.0070   Anisotropy =   292.2055

 22  F    Isotropic =   278.3657   Anisotropy =   265.7022

 23  F    Isotropic =   278.3657   Anisotropy =   265.7025

 24  F    Isotropic =   256.0071   Anisotropy =   292.2059

 25  F    Isotropic =   318.3604   Anisotropy =   213.3900

 26  F    Isotropic =   256.0063   Anisotropy =   292.2038

 The electronic state is 2-A.
 Alpha  occ. eigenvalues --  -24.91083 -24.91083 -24.91083 -24.91083 -24.90442
 Alpha  occ. eigenvalues --  -24.90442 -24.90442 -24.90442 -24.89641 -24.89641
 Alpha  occ. eigenvalues --  -10.50740 -10.50740 -10.50740 -10.50740 -10.49912
 Alpha  occ. eigenvalues --  -10.49912 -10.49856 -10.49856 -10.48635 -10.48635
 Alpha  occ. eigenvalues --  -10.43631 -10.43631 -10.43629 -10.43628 -10.43298
 Alpha  occ. eigenvalues --  -10.43253  -1.44365  -1.44225  -1.44095  -1.43768
 Alpha  occ. eigenvalues --   -1.43527  -1.43288  -1.42099  -1.42014  -1.41414
 Alpha  occ. eigenvalues --   -1.41381  -1.11479  -1.07233  -1.04900  -1.01703
 Alpha  occ. eigenvalues --   -0.98738  -0.95657  -0.95584  -0.93230  -0.86937
 Alpha  occ. eigenvalues --   -0.86875  -0.84712  -0.84406  -0.79554  -0.78062
 Alpha  occ. eigenvalues --   -0.77825  -0.77680  -0.76665  -0.74853  -0.74023
 Alpha  occ. eigenvalues --   -0.73847  -0.72724  -0.72265  -0.71829  -0.70790
 Alpha  occ. eigenvalues --   -0.70313  -0.70237  -0.69371  -0.68758  -0.68643
 Alpha  occ. eigenvalues --   -0.67733  -0.67667  -0.66905  -0.66201  -0.64911
 Alpha  occ. eigenvalues --   -0.64509  -0.64452  -0.64166  -0.63374  -0.63287
 Alpha  occ. eigenvalues --   -0.61382  -0.60481  -0.59954  -0.59723  -0.59585
 Alpha  occ. eigenvalues --   -0.58642  -0.58516  -0.58106  -0.55713  -0.54933
 Alpha  occ. eigenvalues --   -0.54363  -0.54127  -0.52157  -0.47694  -0.47586
 Alpha  occ. eigenvalues --   -0.44542  -0.43086  -0.39633
 Alpha virt. eigenvalues --   -0.27436  -0.23567  -0.21419  -0.19644  -0.16647
 Alpha virt. eigenvalues --   -0.15174  -0.14806  -0.13040  -0.11943  -0.11049
 Alpha virt. eigenvalues --   -0.09250  -0.07975  -0.07929  -0.07084  -0.06094

  Beta  occ. eigenvalues --  -24.90969 -24.90969 -24.90969 -24.90969 -24.90379
  Beta  occ. eigenvalues --  -24.90379 -24.90379 -24.90379 -24.89669 -24.89669
  Beta  occ. eigenvalues --  -10.50463 -10.50463 -10.50462 -10.50462 -10.49763
  Beta  occ. eigenvalues --  -10.49763 -10.49708 -10.49708 -10.48751 -10.48751
  Beta  occ. eigenvalues --  -10.43643 -10.43643 -10.43641 -10.43640 -10.43312
  Beta  occ. eigenvalues --  -10.43267  -1.44171  -1.44025  -1.43896  -1.43517
  Beta  occ. eigenvalues --   -1.43372  -1.43072  -1.41982  -1.41865  -1.41413
  Beta  occ. eigenvalues --   -1.41361  -1.11324  -1.06924  -1.04577  -1.01380
  Beta  occ. eigenvalues --   -0.98384  -0.95562  -0.95306  -0.92528  -0.86806
  Beta  occ. eigenvalues --   -0.86515  -0.84449  -0.84293  -0.79361  -0.77968
  Beta  occ. eigenvalues --   -0.77729  -0.77509  -0.76548  -0.74773  -0.73927
  Beta  occ. eigenvalues --   -0.73734  -0.72574  -0.72199  -0.71664  -0.70753
  Beta  occ. eigenvalues --   -0.70128  -0.69564  -0.68729  -0.68564  -0.68044
  Beta  occ. eigenvalues --   -0.67561  -0.67163  -0.66031  -0.65315  -0.64824
  Beta  occ. eigenvalues --   -0.64479  -0.64130  -0.63664  -0.63229  -0.63048
  Beta  occ. eigenvalues --   -0.61302  -0.60430  -0.59860  -0.59675  -0.59367
  Beta  occ. eigenvalues --   -0.58553  -0.58432  -0.58060  -0.55605  -0.54786
  Beta  occ. eigenvalues --   -0.54013  -0.53716  -0.51279  -0.46754  -0.46500
  Beta  occ. eigenvalues --   -0.43151  -0.42951
  Beta virt. eigenvalues --   -0.34576  -0.25262  -0.23131  -0.20895  -0.18306
  Beta virt. eigenvalues --   -0.16562  -0.15037  -0.13861  -0.12918  -0.11787
  Beta virt. eigenvalues --   -0.10961  -0.08206  -0.07874  -0.07829  -0.06805

 Mulliken atomic charges:
              1
     1  C    0.214112
     2  C    0.032316
     3  C    0.262670
     4  C   -0.059580
     5  C    0.262670
     6  C    0.032316
     7  C    0.032846
     8  C   -0.059580
     9  C    0.262670
    10  C    0.032846
    11  C    0.032316
    12  C    0.214111
    13  C    0.032316
    14  C    0.262670
    15  C    0.032847
    16  C    0.032846
    17  F   -0.062898
    18  F   -0.062898
    19  F   -0.056291
    20  F   -0.071820
    21  F   -0.056291
    22  F   -0.062898
    23  F   -0.062898
    24  F   -0.056291
    25  F   -0.071820
    26  F   -0.056291
 Sum of Mulliken charges=   1.00000

 Dipole moment (field-independent basis, Debye):
    X=     0.0000    Y=     0.0000    Z=     0.0000  Tot=     0.0000
 Quadrupole moment (field-independent basis, Debye-Ang):
   XX=  -114.7572   YY=  -128.4220   ZZ=  -128.9774
   XY=     0.0000   XZ=    -0.0015   YZ=     0.0000

 Normal termination of Gaussian 03 at Sat Mar 12 15:57:51 2011.
