 Gaussian 03, Revision E.01,

 -------------------------------------------------------------
 #p opt=tight b3lyp/EPR-II scf=tight integral=(grid=ultrafine)
 -------------------------------------------------------------

 ------------------------
 Pyrene neutral molecule.
 ------------------------
 Symbolic Z-matrix:
 Charge =  0 Multiplicity = 1

 SCF Done:  E(RB+HF-LYP) =  -615.560402407     A.U. after   13 cycles
 SCF Done:  E(RB+HF-LYP) =  -615.641103052     A.U. after   10 cycles
 SCF Done:  E(RB+HF-LYP) =  -615.739841010     A.U. after   10 cycles
 SCF Done:  E(RB+HF-LYP) =  -615.810727065     A.U. after   10 cycles
 SCF Done:  E(RB+HF-LYP) =  -615.838564313     A.U. after   11 cycles
 SCF Done:  E(RB+HF-LYP) =  -615.839276831     A.U. after   13 cycles
 SCF Done:  E(RB+HF-LYP) =  -615.839300600     A.U. after   13 cycles
 SCF Done:  E(RB+HF-LYP) =  -615.839304520     A.U. after    8 cycles
 SCF Done:  E(RB+HF-LYP) =  -615.839306324     A.U. after   13 cycles
 SCF Done:  E(RB+HF-LYP) =  -615.839306331     A.U. after   13 cycles
 Optimization completed.
    -- Stationary point found.
 Normal termination of Gaussian 03 at Sat Mar 12 16:40:50 2011.
 Gaussian 03:  IA64L-G03RevE.01 11-Sep-2007

 ----------------------------------------------------------------------
 #p nmr=(giao,spinspin) b3lyp/EPR-II scf=tight integral=(grid=ultrafine
 ) geom=checkpoint
 ----------------------------------------------------------------------

 Pyrene neutral molecule.
 ------------------------
 Redundant internal coordinates taken from checkpoint file:
 pyrene_neutral.chk
 Charge =  0 Multiplicity = 1

                         Standard orientation:
 ---------------------------------------------------------------------
 Center     Atomic     Atomic              Coordinates (Angstroms)
 Number     Number      Type              X           Y           Z
 ---------------------------------------------------------------------
    1          6             0        3.538442    0.000000    0.000369
    2          6             0        2.844243   -1.217421    0.000308
    3          6             0        1.433615   -1.239752    0.000161
    4          6             0        0.715613    0.000000    0.000075
    5          6             0        1.433616    1.239752    0.000139
    6          6             0        2.844243    1.217421    0.000286
    7          6             0        0.684494   -2.474314    0.000093
    8          6             0       -0.715613    0.000000   -0.000075
    9          6             0       -1.433615   -1.239752   -0.000139
   10          6             0       -0.684494   -2.474314   -0.000049
   11          6             0       -2.844243   -1.217421   -0.000286
   12          6             0       -3.538443    0.000000   -0.000369
   13          6             0       -2.844243    1.217421   -0.000308
   14          6             0       -1.433616    1.239752   -0.000161
   15          6             0       -0.684494    2.474315   -0.000094
   16          6             0        0.684494    2.474315    0.000049
   17          1             0       -1.234618    3.412056   -0.000159
   18          1             0        1.234618    3.412056    0.000099
   19          1             0        3.391173    2.156917    0.000335
   20          1             0        4.624959    0.000000    0.000483
   21          1             0        3.391172   -2.156918    0.000373
   22          1             0        1.234618   -3.412056    0.000160
   23          1             0       -1.234618   -3.412056   -0.000098
   24          1             0       -3.391173   -2.156918   -0.000334
   25          1             0       -4.624959    0.000000   -0.000483
   26          1             0       -3.391173    2.156917   -0.000373
 ---------------------------------------------------------------------

 SCF Done:  E(RB+HF-LYP) =  -615.839306331     A.U. after   12 cycles

  1  C    Isotropic =    61.5890   Anisotropy =   173.0254

  2  C    Isotropic =    60.8823   Anisotropy =   153.5002

  3  C    Isotropic =    54.4176   Anisotropy =   199.1622

  4  C    Isotropic =    62.1383   Anisotropy =   206.5764

  5  C    Isotropic =    54.4176   Anisotropy =   199.1621

  6  C    Isotropic =    60.8823   Anisotropy =   153.5002

  7  C    Isotropic =    57.5906   Anisotropy =   145.4603

  8  C    Isotropic =    62.1383   Anisotropy =   206.5765

  9  C    Isotropic =    54.4175   Anisotropy =   199.1622

 10  C    Isotropic =    57.5906   Anisotropy =   145.4603

 11  C    Isotropic =    60.8823   Anisotropy =   153.5003

 12  C    Isotropic =    61.5890   Anisotropy =   173.0254

 13  C    Isotropic =    60.8823   Anisotropy =   153.5003

 14  C    Isotropic =    54.4175   Anisotropy =   199.1621

 15  C    Isotropic =    57.5906   Anisotropy =   145.4603

 16  C    Isotropic =    57.5906   Anisotropy =   145.4602

 17  H    Isotropic =    23.5477   Anisotropy =     8.3399

 18  H    Isotropic =    23.5477   Anisotropy =     8.3399

 19  H    Isotropic =    23.4087   Anisotropy =     8.3268

 20  H    Isotropic =    23.6104   Anisotropy =     6.5143

 21  H    Isotropic =    23.4087   Anisotropy =     8.3269

 22  H    Isotropic =    23.5477   Anisotropy =     8.3399

 23  H    Isotropic =    23.5477   Anisotropy =     8.3399

 24  H    Isotropic =    23.4087   Anisotropy =     8.3268

 25  H    Isotropic =    23.6104   Anisotropy =     6.5143

 26  H    Isotropic =    23.4087   Anisotropy =     8.3268

 The electronic state is 1-A.
 Alpha  occ. eigenvalues --  -10.21295 -10.21295 -10.21291 -10.21291 -10.21097
 Alpha  occ. eigenvalues --  -10.21054 -10.20407 -10.20407 -10.20363 -10.20363
 Alpha  occ. eigenvalues --  -10.20339 -10.20339 -10.20230 -10.20230 -10.20219
 Alpha  occ. eigenvalues --  -10.20219  -0.89207  -0.85058  -0.83082  -0.79706
 Alpha  occ. eigenvalues --   -0.76768  -0.74970  -0.73188  -0.71162  -0.63020
 Alpha  occ. eigenvalues --   -0.62959  -0.62522  -0.61033  -0.54806  -0.52522
 Alpha  occ. eigenvalues --   -0.52028  -0.50335  -0.49415  -0.47325  -0.44396
 Alpha  occ. eigenvalues --   -0.43555  -0.43356  -0.41836  -0.41161  -0.40466
 Alpha  occ. eigenvalues --   -0.39968  -0.39382  -0.36971  -0.36761  -0.36335
 Alpha  occ. eigenvalues --   -0.34380  -0.33261  -0.32375  -0.30022  -0.27720
 Alpha  occ. eigenvalues --   -0.25950  -0.23502  -0.20332
 Alpha virt. eigenvalues --   -0.06502  -0.03486  -0.01671   0.00529   0.01702
 Alpha virt. eigenvalues --    0.02533   0.02808   0.04151   0.04446   0.05414
 Alpha virt. eigenvalues --    0.05623   0.06219   0.07835   0.08961   0.09710

 Mulliken atomic charges:
              1
     1  C   -0.095725
     2  C   -0.337456
     3  C    0.468494
     4  C   -0.096519
     5  C    0.468494
     6  C   -0.337456
     7  C   -0.304708
     8  C   -0.096519
     9  C    0.468494
    10  C   -0.304708
    11  C   -0.337456
    12  C   -0.095725
    13  C   -0.337456
    14  C    0.468494
    15  C   -0.304708
    16  C   -0.304708
    17  H    0.106424
    18  H    0.106424
    19  H    0.114226
    20  H    0.098283
    21  H    0.114226
    22  H    0.106424
    23  H    0.106424
    24  H    0.114226
    25  H    0.098283
    26  H    0.114226
 Sum of Mulliken charges=   0.00000

 Dipole moment (field-independent basis, Debye):
    X=     0.0000    Y=     0.0000    Z=     0.0000  Tot=     0.0000
 Quadrupole moment (field-independent basis, Debye-Ang):
   XX=   -79.4670   YY=   -79.7386   ZZ=   -98.5258
   XY=     0.0000   XZ=     0.0020   YZ=    -0.0002

 Normal termination of Gaussian 03 at Sat Mar 12 17:43:48 2011.
