 Gaussian 03, Revision E.01,
 Gaussian 03:  IA64L-G03RevE.01 11-Sep-2007

 ----------------------------------------------------------------------
 # nmr=(giao,spinspin) b3lyp/epr-II geom=connectivity integral=(grid=ul
 trafine)
 ----------------------------------------------------------------------

 ----------------------
 HJH_070910_Mol_EG3_nmr
 ----------------------
 Symbolic Z-matrix:
 Charge =  0 Multiplicity = 1

                         Standard orientation:
 ---------------------------------------------------------------------
 Center     Atomic     Atomic              Coordinates (Angstroms)
 Number     Number      Type              X           Y           Z
 ---------------------------------------------------------------------
    1          6             0        0.486500   -0.184800    1.319100
    2          6             0        0.296300    1.157200    0.757900
    3          6             0        0.198300   -1.255700    0.618900
    4          1             0        0.848400   -0.311900    2.313900
    5          1             0        0.351600   -2.222000    1.090200
    6          8             0        0.547000    2.152700    1.414100
    7          6             0       -0.198300    1.255700   -0.618900
    8          6             0       -0.296300   -1.157200   -0.757900
    9          6             0       -0.486500    0.184800   -1.319100
   10          1             0       -0.351600    2.222000   -1.090200
   11          8             0       -0.547000   -2.152700   -1.414100
   12          1             0       -0.848400    0.311900   -2.313900
 ---------------------------------------------------------------------

 SCF Done:  E(RB+HF-LYP) =  -381.511527945     A.U. after   11 cycles

  1  C    Isotropic =    57.9607   Anisotropy =   128.1526

  2  C    Isotropic =     2.7790   Anisotropy =   177.4804

  3  C    Isotropic =    57.6390   Anisotropy =   127.4996

  4  H    Isotropic =    25.7177   Anisotropy =     6.3902

  5  H    Isotropic =    25.4234   Anisotropy =     6.1757

  6  O    Isotropic =  -409.5148   Anisotropy =  1160.8934

  7  C    Isotropic =    57.6390   Anisotropy =   127.4996

  8  C    Isotropic =     2.7790   Anisotropy =   177.4804

  9  C    Isotropic =    57.9607   Anisotropy =   128.1526

 10  H    Isotropic =    25.4234   Anisotropy =     6.1757

 11  O    Isotropic =  -409.5148   Anisotropy =  1160.8934

 12  H    Isotropic =    25.7177   Anisotropy =     6.3902

 The electronic state is 1-AG.
 Alpha  occ. eigenvalues --  -19.16514 -19.16514 -10.31095 -10.31094 -10.23772
 Alpha  occ. eigenvalues --  -10.23771 -10.23571 -10.23571  -1.07134  -1.06896
 Alpha  occ. eigenvalues --   -0.88119  -0.81307  -0.71579  -0.64766  -0.62936
 Alpha  occ. eigenvalues --   -0.52740  -0.51616  -0.49307  -0.47880  -0.45691
 Alpha  occ. eigenvalues --   -0.44950  -0.42601  -0.42035  -0.41293  -0.31811
 Alpha  occ. eigenvalues --   -0.31751  -0.28677  -0.27954
 Alpha virt. eigenvalues --   -0.13637  -0.03327   0.00180   0.01827   0.03164
 Alpha virt. eigenvalues --    0.04650   0.05276   0.07389   0.09609   0.12467
 Alpha virt. eigenvalues --    0.13988   0.17171   0.20343   0.20621   0.20965

 Mulliken atomic charges:
              1
     1  C   -0.109238
     2  C    0.214279
     3  C   -0.109728
     4  H    0.146896
     5  H    0.141104
     6  O   -0.283312
     7  C   -0.109728
     8  C    0.214279
     9  C   -0.109238
    10  H    0.141104
    11  O   -0.283312
    12  H    0.146896
 Sum of Mulliken charges=   0.00000

 Dipole moment (field-independent basis, Debye):
    X=     0.0000    Y=     0.0000    Z=     0.0000  Tot=     0.0000
 Quadrupole moment (field-independent basis, Debye-Ang):
   XX=   -45.0650   YY=   -53.8582   ZZ=   -44.8658
   XY=    -4.2533   XZ=    -0.1027   YZ=   -11.4755

 Normal termination of Gaussian 03 at Wed Sep  8 11:59:07 2010.
