 Gaussian 03, Revision E.01,
 Gaussian 03:  IA64L-G03RevE.01 11-Sep-2007

 ----------------------------------------------------------------------
 #p nmr=(giao,spinspin,mixed) b3lyp/6-31+g(d) scf=tight nosymm integral
 =(grid=ultrafine)
 ----------------------------------------------------------------------

 ---------------------------------
 Camphor NMR shielding parameters.
 ---------------------------------
 Symbolic Z-matrix:
 Charge =  0 Multiplicity = 1

                         Standard orientation:
 ---------------------------------------------------------------------
 Center     Atomic     Atomic              Coordinates (Angstroms)
 Number     Number      Type              X           Y           Z
 ---------------------------------------------------------------------
    1          6             0        0.164712    0.422661    3.175874
    2          6             0       -1.389141    0.482152    3.064499
    3          6             0       -1.620009    1.154319    1.683718
    4          6             0        0.653889    1.067059    1.847835
    5          6             0       -1.271524    0.111795    0.592467
    6          6             0        0.303946   -0.004739    0.760572
    7          6             0       -0.435814    2.179351    1.619272
    8          6             0       -0.271173    2.985233    0.312170
    9          6             0       -0.514608    3.239051    2.741335
   10          8             0       -1.617754    0.624082   -0.699857
   11          6             0       -2.036777   -1.215775    0.692284
   12          8             0        0.917402    0.183410   -0.520259
   13          6             0        2.056696   -0.642377   -0.800329
   14          6             0        2.483167   -0.415285   -2.228617
   15          6             0        1.834773   -1.080810   -3.278734
   16          6             0        2.211200   -0.856137   -4.604436
   17          6             0        3.247086    0.037296   -4.895278
   18          6             0        3.901818    0.703475   -3.855875
   19          6             0        3.519641    0.477268   -2.530866
   20          7             0       -3.300383   -1.138527    1.140918
   21          6             0       -4.053545   -2.243758    1.130969
   22          6             0       -3.601590   -3.486295    0.681527
   23          6             0       -2.290265   -3.570331    0.213408
   24          6             0       -1.499815   -2.421700    0.216893
   25          6             0        2.114452    1.500536    1.869485
   26          1             0        0.540732   -0.602319    3.289047
   27          1             0        0.538593    0.988171    4.036665
   28          1             0       -1.832212    1.079726    3.866629
   29          1             0       -1.853623   -0.503433    3.125947
   30          1             0       -2.621334    1.566906    1.545915
   31          1             0        0.586887   -0.998574    1.128292
   32          1             0       -1.206726    3.500617    0.065342
   33          1             0        0.502482    3.752263    0.451543
   34          1             0        0.013739    2.386209   -0.548620
   35          1             0       -0.659088    2.835654    3.745831
   36          1             0       -1.350727    3.920675    2.539424
   37          1             0        0.397379    3.848408    2.759397
   38          1             0       -0.852675    0.454913   -1.281401
   39          1             0        2.874777   -0.395692   -0.112104
   40          1             0        1.786770   -1.697722   -0.640474
   41          1             0        1.030240   -1.778912   -3.056230
   42          1             0        1.700453   -1.379540   -5.408701
   43          1             0        3.543637    0.210785   -5.926590
   44          1             0        4.708802    1.397865   -4.075509
   45          1             0        4.029301    0.999297   -1.723826
   46          1             0       -5.070198   -2.128156    1.504225
   47          1             0       -4.256753   -4.352660    0.698615
   48          1             0       -1.888996   -4.512929   -0.151292
   49          1             0       -0.482522   -2.463989   -0.159935
   50          1             0        2.427578    1.919741    0.906988
   51          1             0        2.277606    2.265611    2.638146
   52          1             0        2.778658    0.658889    2.108136
 ---------------------------------------------------------------------

 SCF Done:  E(RB+HF-LYP) =  -1059.92076360     A.U. after   15 cycles
 Normal termination of Gaussian 03 at Wed Aug 25 18:54:53 2010.

 ----------------------------------------------------------------------
 #P Geom=AllCheck Guess=Read SCRF=Check GenChk RB3LYP/ChkBas NMR=ReadFC
  IOp(3/6=22)
 ----------------------------------------------------------------------

 Camphor NMR shielding parameters.
 ---------------------------------
 Z-Matrix taken from the checkpoint file:
 /scratch/pbs.75778.orac/Gau-182267.chk
 Charge =  0 Multiplicity = 1

 SCF Done:  E(RB+HF-LYP) =  -1059.80115143     A.U. after   13 cycles

  1  C    Isotropic =   153.0648   Anisotropy =    35.1132

  2  C    Isotropic =   162.9520   Anisotropy =    19.9416

  3  C    Isotropic =   135.1183   Anisotropy =    27.1707

  4  C    Isotropic =   135.5763   Anisotropy =    24.3198

  5  C    Isotropic =   105.2096   Anisotropy =    17.4844

  6  C    Isotropic =    97.3597   Anisotropy =    41.3343

  7  C    Isotropic =   138.9966   Anisotropy =    16.6056

  8  C    Isotropic =   166.2489   Anisotropy =    25.3527

  9  C    Isotropic =   167.6027   Anisotropy =    37.0588

 10  O    Isotropic =   246.8007   Anisotropy =    33.6211

 11  C    Isotropic =    27.6123   Anisotropy =   179.2601

 12  O    Isotropic =   259.5055   Anisotropy =    70.8099

 13  C    Isotropic =   114.0979   Anisotropy =    49.3326

 14  C    Isotropic =    57.7807   Anisotropy =   180.3598

 15  C    Isotropic =    64.6400   Anisotropy =   156.8264

 16  C    Isotropic =    67.0084   Anisotropy =   165.8903

 17  C    Isotropic =    67.0225   Anisotropy =   168.6301

 18  C    Isotropic =    67.3246   Anisotropy =   165.2688

 19  C    Isotropic =    64.8069   Anisotropy =   153.1234

 20  N    Isotropic =   -59.8095   Anisotropy =   517.9932

 21  C    Isotropic =    45.6613   Anisotropy =   152.2015

 22  C    Isotropic =    75.7228   Anisotropy =   155.2359

 23  C    Isotropic =    60.3738   Anisotropy =   179.2944

 24  C    Isotropic =    74.7704   Anisotropy =   151.1107

 25  C    Isotropic =   175.6287   Anisotropy =    21.0882

 26  H    Isotropic =    31.1344   Anisotropy =     7.2346

 27  H    Isotropic =    30.4956   Anisotropy =     9.0045

 28  H    Isotropic =    30.3649   Anisotropy =    10.6943

 29  H    Isotropic =    30.9185   Anisotropy =     8.4371

 30  H    Isotropic =    29.2144   Anisotropy =     8.8172

 31  H    Isotropic =    28.2150   Anisotropy =     4.6065

 32  H    Isotropic =    30.8224   Anisotropy =     9.1054

 33  H    Isotropic =    31.3827   Anisotropy =     8.0587

 34  H    Isotropic =    30.3015   Anisotropy =     6.9339

 35  H    Isotropic =    31.0905   Anisotropy =     9.1608

 36  H    Isotropic =    31.0486   Anisotropy =    10.1665

 37  H    Isotropic =    31.3470   Anisotropy =     8.6137

 38  H    Isotropic =    29.0481   Anisotropy =    15.6617

 39  H    Isotropic =    27.2899   Anisotropy =     6.4781

 40  H    Isotropic =    27.6496   Anisotropy =     5.8240

 41  H    Isotropic =    24.6091   Anisotropy =     8.8567

 42  H    Isotropic =    24.6435   Anisotropy =     5.5478

 43  H    Isotropic =    24.6907   Anisotropy =     3.9853

 44  H    Isotropic =    24.6874   Anisotropy =     5.1831

 45  H    Isotropic =    24.6455   Anisotropy =     8.5275

 46  H    Isotropic =    23.3558   Anisotropy =     5.5774

 47  H    Isotropic =    25.0950   Anisotropy =     4.1289

 48  H    Isotropic =    24.4978   Anisotropy =     6.1867

 49  H    Isotropic =    24.9949   Anisotropy =    11.6435

 50  H    Isotropic =    30.5004   Anisotropy =     7.9644

 51  H    Isotropic =    31.1022   Anisotropy =     9.0678

 52  H    Isotropic =    30.9946   Anisotropy =     8.7977

 Alpha  occ. eigenvalues --  -19.17537 -19.14108 -14.33405 -10.25497 -10.24593
 Alpha  occ. eigenvalues --  -10.24535 -10.23220 -10.22799 -10.21606 -10.21176
 Alpha  occ. eigenvalues --  -10.20619 -10.20604 -10.20587 -10.20530 -10.20529
 Alpha  occ. eigenvalues --  -10.20507 -10.20486 -10.19667 -10.19218 -10.18148
 Alpha  occ. eigenvalues --  -10.17986 -10.17895 -10.17479 -10.17014 -10.15743
 Alpha  occ. eigenvalues --   -1.05582  -1.01219  -0.94487  -0.87375  -0.86733
 Alpha  occ. eigenvalues --   -0.80895  -0.78753  -0.78061  -0.75876  -0.75580
 Alpha  occ. eigenvalues --   -0.74830  -0.72931  -0.69532  -0.66984  -0.66853
 Alpha  occ. eigenvalues --   -0.64616  -0.63513  -0.62017  -0.61544  -0.59931
 Alpha  occ. eigenvalues --   -0.59130  -0.54379  -0.53297  -0.52527  -0.52302
 Alpha  occ. eigenvalues --   -0.51626  -0.49937  -0.48877  -0.48142  -0.47604
 Alpha  occ. eigenvalues --   -0.47183  -0.46310  -0.45615  -0.44331  -0.43612
 Alpha  occ. eigenvalues --   -0.43448  -0.43179  -0.42285  -0.41882  -0.41013
 Alpha  occ. eigenvalues --   -0.40686  -0.39697  -0.39247  -0.39104  -0.37953
 Alpha  occ. eigenvalues --   -0.37605  -0.36892  -0.36794  -0.36351  -0.36081
 Alpha  occ. eigenvalues --   -0.35565  -0.34650  -0.33759  -0.33307  -0.32956
 Alpha  occ. eigenvalues --   -0.32165  -0.31217  -0.30945  -0.29130  -0.28465
 Alpha  occ. eigenvalues --   -0.28027  -0.26845  -0.26445  -0.26230  -0.25681
 Alpha  occ. eigenvalues --   -0.24534
 Alpha virt. eigenvalues --   -0.03504  -0.03036  -0.02290  -0.02232  -0.00757
 Alpha virt. eigenvalues --    0.00302   0.00534   0.01186   0.01702   0.01993
 Alpha virt. eigenvalues --    0.02841   0.03071   0.03160   0.03418   0.04288

 Mulliken atomic charges:
              1
     1  C   -0.677371
     2  C   -0.456497
     3  C    0.260076
     4  C    0.383345
     5  C   -0.368417
     6  C   -0.735923
     7  C   -0.669664
     8  C   -0.673316
     9  C   -0.461069
    10  O   -0.522086
    11  C   -0.793348
    12  O   -0.211187
    13  C   -0.874497
    14  C    1.150641
    15  C   -0.096050
    16  C   -0.554187
    17  C   -0.086029
    18  C   -0.376386
    19  C   -0.022355
    20  N   -0.010297
    21  C   -0.138960
    22  C    0.167090
    23  C   -0.781311
    24  C    1.240717
    25  C   -0.478621
    26  H    0.198922
    27  H    0.216988
    28  H    0.206108
    29  H    0.221728
    30  H    0.214764
    31  H    0.177629
    32  H    0.220558
    33  H    0.198573
    34  H    0.257634
    35  H    0.213965
    36  H    0.223703
    37  H    0.213761
    38  H    0.520286
    39  H    0.200303
    40  H    0.185526
    41  H    0.183154
    42  H    0.183280
    43  H    0.181314
    44  H    0.182813
    45  H    0.180020
    46  H    0.178663
    47  H    0.184964
    48  H    0.187154
    49  H    0.180184
    50  H    0.238968
    51  H    0.220814
    52  H    0.213925
 Sum of Mulliken charges=   0.00000

 Dipole moment (field-independent basis, Debye):
    X=     2.7940    Y=    -2.6726    Z=    -0.0710  Tot=     3.8671
 Quadrupole moment (field-independent basis, Debye-Ang):
   XX=  -151.2488   YY=  -143.8402   ZZ=  -145.6273
   XY=     9.4561   XZ=    -4.1567   YZ=     2.3888

 Normal termination of Gaussian 03 at Thu Aug 26 07:28:58 2010.
