 Gaussian 03, Revision D.01,
 Gaussian 03:  IA32L-G03RevD.01 13-Oct-2005

 ----------------------------------------------------------------------
 #p nmr=(giao,spinspin,mixed) rb3lyp/cc-pVDZ geom=checkpoint guess=read
 ----------------------------------------------------------------------

 Strychnine.
 -----------
 Redundant internal coordinates taken from checkpoint file:
 strychnine.chk
 Charge =  0 Multiplicity = 1

 SCF Done:  E(RB+HF-LYP) =  -1073.58393111     A.U. after   12 cycles
 Normal termination of Gaussian 03 at Thu Apr 16 18:19:23 2009.

 ----------------------------------------------------------------------
 #P Geom=AllCheck Guess=Read SCRF=Check GenChk RB3LYP/ChkBas NMR=ReadFC
  IOp(3/6=22)
 ----------------------------------------------------------------------

 Strychnine.
 -----------
 Redundant internal coordinates taken from checkpoint file:
 strychnine.chk
 Charge =  0 Multiplicity = 1

                         Standard orientation:
 ---------------------------------------------------------------------
 Center     Atomic     Atomic              Coordinates (Angstroms)
 Number     Number      Type              X           Y           Z
 ---------------------------------------------------------------------
    1          6             0        2.990092   -1.847086   -0.320385
    2          6             0        4.310438   -1.417729   -0.515177
    3          6             0        4.639712   -0.067935   -0.352690
    4          6             0        3.672304    0.882488   -0.002094
    5          6             0        2.358178    0.437764    0.175566
    6          6             0        2.012441   -0.915903    0.023449
    7          7             0        1.208021    1.195696    0.495355
    8          6             0        0.001233    0.334522    0.415357
    9          6             0        0.551731   -1.130148    0.365370
   10          6             0        1.082389    2.562645    0.314661
   11          6             0       -0.356352    3.075021    0.309665
   12          6             0       -1.415723    2.202272   -0.415196
   13          6             0       -0.811516    0.834199   -0.793576
   14          6             0       -0.272855   -2.079744   -0.556032
   15          6             0       -0.822503   -1.407858   -1.815384
   16          6             0       -1.738592   -0.244387   -1.391516
   17          6             0       -2.823972   -0.765728   -0.448042
   18          6             0       -2.724663   -2.248505   -0.155123
   19          7             0       -1.373332   -2.614420    0.296210
   20          6             0        0.364187   -1.841497    1.729659
   21          6             0       -1.102664   -2.273743    1.704725
   22          6             0       -3.721171    0.040895    0.137366
   23          6             0       -3.711560    1.541853   -0.023177
   24          8             0       -2.517906    2.140328    0.488230
   25          8             0        2.040718    3.312868    0.194868
   26          1             0       -1.748524    2.706032   -1.344375
   27          1             0       -2.225858    0.187480   -2.284976
   28          1             0       -0.080552    1.056933   -1.592304
   29          1             0        0.387203   -2.915575   -0.851039
   30          1             0       -0.609026    0.476332    1.319914
   31          1             0        2.734553   -2.903448   -0.434251
   32          1             0        5.082587   -2.140033   -0.788025
   33          1             0        5.671661    0.258462   -0.501651
   34          1             0        3.913393    1.935279    0.119943
   35          1             0       -0.687866    3.147886    1.359160
   36          1             0       -0.320615    4.097734   -0.085510
   37          1             0       -1.363352   -2.143040   -2.429645
   38          1             0        0.011858   -1.037686   -2.431270
   39          1             0       -3.444361   -2.546270    0.621273
   40          1             0       -2.974832   -2.840969   -1.052056
   41          1             0        0.613355   -1.195575    2.584703
   42          1             0        1.028726   -2.719343    1.766975
   43          1             0       -1.294473   -3.137528    2.363775
   44          1             0       -1.752239   -1.445390    2.052931
   45          1             0       -4.469096   -0.390612    0.811139
   46          1             0       -4.534657    1.993243    0.549778
   47          1             0       -3.850021    1.833203   -1.084783
 ---------------------------------------------------------------------

 SCF Done:  E(RB+HF-LYP) =  -1073.46901868     A.U. after   11 cycles

  1  C    Isotropic =    71.8315   Anisotropy =   164.7029

  2  C    Isotropic =    70.2215   Anisotropy =   161.9098

  3  C    Isotropic =    64.6725   Anisotropy =   170.7037

  4  C    Isotropic =    75.8994   Anisotropy =   155.1937

  5  C    Isotropic =    49.0562   Anisotropy =   121.9011

  6  C    Isotropic =    60.3412   Anisotropy =   139.4616

  7  N    Isotropic =    96.2359   Anisotropy =    81.5318

  8  C    Isotropic =   128.9043   Anisotropy =    38.2261

  9  C    Isotropic =   134.6329   Anisotropy =    28.0601

 10  C    Isotropic =    28.1505   Anisotropy =   104.6833

 11  C    Isotropic =   147.3659   Anisotropy =    39.9161

 12  C    Isotropic =   111.3622   Anisotropy =    50.7601

 13  C    Isotropic =   139.7726   Anisotropy =    20.3786

 14  C    Isotropic =   128.5663   Anisotropy =    36.4112

 15  C    Isotropic =   161.5556   Anisotropy =    14.5243

 16  C    Isotropic =   154.9605   Anisotropy =    12.0463

 17  C    Isotropic =    48.4408   Anisotropy =   158.7328

 18  C    Isotropic =   138.5021   Anisotropy =    27.0599

 19  N    Isotropic =   210.8483   Anisotropy =    60.8233

 20  C    Isotropic =   145.9654   Anisotropy =    42.8200

 21  C    Isotropic =   141.2068   Anisotropy =    55.1230

 22  C    Isotropic =    64.9709   Anisotropy =   124.6933

 23  C    Isotropic =   126.4573   Anisotropy =    68.2615

 24  O    Isotropic =   263.6827   Anisotropy =    89.7629

 25  O    Isotropic =   -96.1246   Anisotropy =   627.6654

 26  H    Isotropic =    27.5647   Anisotropy =     6.4278

 27  H    Isotropic =    28.6651   Anisotropy =     8.4279

 28  H    Isotropic =    30.7254   Anisotropy =     2.8056

 29  H    Isotropic =    27.7767   Anisotropy =     9.4856

 30  H    Isotropic =    27.8680   Anisotropy =     3.1714

 31  H    Isotropic =    24.4728   Anisotropy =     9.9273

 32  H    Isotropic =    24.5319   Anisotropy =     4.7253

 33  H    Isotropic =    24.3284   Anisotropy =     4.1429

 34  H    Isotropic =    23.2304   Anisotropy =     9.1134

 35  H    Isotropic =    28.9194   Anisotropy =     4.8682

 36  H    Isotropic =    28.6588   Anisotropy =     7.8147

 37  H    Isotropic =    29.3225   Anisotropy =    10.4970

 38  H    Isotropic =    30.1598   Anisotropy =     6.5374

 39  H    Isotropic =    29.0804   Anisotropy =     8.4144

 40  H    Isotropic =    27.7725   Anisotropy =     9.5638

 41  H    Isotropic =    29.7298   Anisotropy =     6.8719

 42  H    Isotropic =    29.6964   Anisotropy =     9.0170

 43  H    Isotropic =    28.4648   Anisotropy =    11.1838

 44  H    Isotropic =    28.6154   Anisotropy =     5.7345

 45  H    Isotropic =    25.6534   Anisotropy =     5.5733

 46  H    Isotropic =    27.4600   Anisotropy =     9.6602

 47  H    Isotropic =    27.5353   Anisotropy =     7.4232

 The electronic state is 1-A.
 Alpha  occ. eigenvalues --  -19.14947 -19.10855 -14.36659 -14.32150 -10.28759
 Alpha  occ. eigenvalues --  -10.25158 -10.24311 -10.23347 -10.22618 -10.22273
 Alpha  occ. eigenvalues --  -10.21947 -10.21235 -10.21202 -10.20957 -10.20439
 Alpha  occ. eigenvalues --  -10.19999 -10.19679 -10.19645 -10.19288 -10.19281
 Alpha  occ. eigenvalues --  -10.19219 -10.18875 -10.18821 -10.18601 -10.18299
 Alpha  occ. eigenvalues --   -1.04380  -1.03773  -0.96585  -0.94016  -0.85593
 Alpha  occ. eigenvalues --   -0.84008  -0.82587  -0.80743  -0.77541  -0.75144
 Alpha  occ. eigenvalues --   -0.74620  -0.73602  -0.71769  -0.70583  -0.66721
 Alpha  occ. eigenvalues --   -0.64704  -0.63658  -0.63157  -0.60403  -0.58504
 Alpha  occ. eigenvalues --   -0.57541  -0.55986  -0.54992  -0.52028  -0.51460
 Alpha  occ. eigenvalues --   -0.50787  -0.49779  -0.48961  -0.48738  -0.47448
 Alpha  occ. eigenvalues --   -0.46623  -0.46300  -0.45736  -0.44885  -0.44690
 Alpha  occ. eigenvalues --   -0.43863  -0.42782  -0.41556  -0.41367  -0.40469
 Alpha  occ. eigenvalues --   -0.40173  -0.39832  -0.39344  -0.38935  -0.38137
 Alpha  occ. eigenvalues --   -0.37512  -0.37040  -0.36553  -0.36397  -0.35797
 Alpha  occ. eigenvalues --   -0.35331  -0.34389  -0.33649  -0.33176  -0.33067
 Alpha  occ. eigenvalues --   -0.32146  -0.31567  -0.29330  -0.26868  -0.25199
 Alpha  occ. eigenvalues --   -0.25054  -0.24700  -0.21486  -0.20751
 Alpha virt. eigenvalues --   -0.01308  -0.00966  -0.00833   0.03286   0.04624
 Alpha virt. eigenvalues --    0.05487   0.06349   0.06828   0.07484   0.08045
 Alpha virt. eigenvalues --    0.08179   0.08356   0.09325   0.10624   0.11468

 Mulliken atomic charges:
              1
     1  C   -0.027005
     2  C    0.047464
     3  C    0.048985
     4  C    0.031715
     5  C    0.135569
     6  C    0.054816
     7  N   -0.250009
     8  C    0.135324
     9  C   -0.248268
    10  C    0.099942
    11  C    0.099648
    12  C    0.117254
    13  C    0.018813
    14  C    0.131173
    15  C    0.105090
    16  C   -0.040447
    17  C   -0.075202
    18  C    0.200032
    19  N   -0.310352
    20  C    0.092485
    21  C    0.132797
    22  C   -0.070111
    23  C    0.226535
    24  O   -0.321570
    25  O   -0.255853
    26  H   -0.014861
    27  H   -0.013908
    28  H   -0.009443
    29  H   -0.017508
    30  H   -0.005430
    31  H   -0.045214
    32  H   -0.035929
    33  H   -0.029762
    34  H   -0.014266
    35  H    0.053541
    36  H    0.028226
    37  H    0.000751
    38  H    0.002104
    39  H   -0.001828
    40  H    0.014933
    41  H    0.008106
    42  H    0.008009
    43  H    0.006336
    44  H    0.001229
    45  H   -0.034217
    46  H    0.013321
    47  H    0.006983
 Sum of Mulliken charges=   0.00000

 Dipole moment (field-independent basis, Debye):
    X=    -3.0849    Y=    -2.3476    Z=    -1.0325  Tot=     4.0117
 Quadrupole moment (field-independent basis, Debye-Ang):
   XX=  -143.9662   YY=  -154.9048   ZZ=  -143.8434
   XY=    -8.9500   XZ=     0.1407   YZ=    -1.8378

 Normal termination of Gaussian 03 at Thu Apr 16 22:05:17 2009.
