 Gaussian 03, Revision D.01,
 Gaussian 03:  AM64L-G03RevD.01 13-Oct-2005

 ----------------------------------------------------------------------
 #p ub3lyp/EPR-II scrf=(pcm,solvent=water,read) guess=read geom=connect
 ivity scf=tight integral=(grid=ultrafine)
 ----------------------------------------------------------------------

 ----------------------------------------------------
 Explicitly hydrated tryptophan radical in PCM water.
 ----------------------------------------------------
 Symbolic Z-matrix:
 Charge =  0 Multiplicity = 2

                         Standard orientation:
 ---------------------------------------------------------------------
 Center     Atomic     Atomic              Coordinates (Angstroms)
 Number     Number      Type              X           Y           Z
 ---------------------------------------------------------------------
    1          8             0        2.550192    1.335531    0.208721
    2          6             0        1.743439    0.411447    0.520233
    3          8             0        1.012013    0.394082    1.546135
    4          6             0        1.666367   -0.819814   -0.434540
    5          6             0        0.394477   -1.658392   -0.271960
    6          7             0        2.863185   -1.691609   -0.138728
    7          6             0       -0.884818   -0.913268   -0.464498
    8          6             0       -1.104476    0.393734   -1.036852
    9          7             0       -2.375860    0.757216   -1.037405
   10          6             0       -3.083483   -0.322046   -0.457814
   11          6             0       -2.194301   -1.373022   -0.094332
   12          6             0       -2.684234   -2.538907    0.503292
   13          6             0       -4.444077   -0.422802   -0.231319
   14          6             0       -4.928162   -1.603976    0.370872
   15          6             0       -4.064826   -2.642520    0.731127
   16          1             0        3.735442   -1.157423   -0.366908
   17          1             0        1.792842   -0.482153   -1.502822
   18          1             0        0.382620   -2.124238    0.721209
   19          1             0        0.435238   -2.490270   -0.992202
   20          1             0        2.832061   -2.561993   -0.720733
   21          1             0        2.851675   -1.941614    0.875067
   22          1             0       -0.341318    1.061194   -1.427554
   23          1             0       -2.719212    2.782062   -0.831805
   24          1             0       -2.017391   -3.349463    0.788612
   25          1             0       -5.120784    0.382969   -0.507175
   26          1             0       -5.994004   -1.704974    0.558598
   27          1             0       -4.466733   -3.539480    1.194161
   28          8             0       -2.762504    3.739252   -0.662906
   29          1             0       -1.840142    3.970444   -0.416218
   30          8             0        2.549393   -3.966859   -1.721694
   31          1             0        3.086873   -3.945972   -2.534918
   32          1             0        2.830609   -4.782700   -1.268010
   33          8             0        0.673653    3.021948    2.354990
   34          1             0        1.578328    3.366980    2.440707
   35          1             0        0.815467    2.086601    2.075811
   36          8             0        2.254619   -1.933575    2.591401
   37          1             0        1.727499   -1.111345    2.538621
   38          1             0        2.957182   -1.740630    3.237679
   39          8             0        4.818842    0.171025   -0.816394
   40          1             0        5.511936    0.257702   -0.137851
   41          1             0        4.112965    0.793378   -0.527973
   42          8             0        1.241879    2.703031   -1.798895
   43          1             0        1.786789    3.017237   -2.540167
   44          1             0        1.866346    2.295355   -1.162457
   45          1             0        0.118718    3.910885    0.858255
   46          8             0       -0.113655    4.363714    0.016483
   47          1             0        0.374837    3.860419   -0.666994
 ---------------------------------------------------------------------

 SCF Done:  E(UB+HF-LYP) =  -1221.15832005     A.U. after   16 cycles

 The electronic state is 2-A.
 Alpha  occ. eigenvalues --  -19.16487 -19.15435 -19.14820 -19.14261 -19.13281
 Alpha  occ. eigenvalues --  -19.12758 -19.12629 -19.11555 -19.09828 -14.40509
 Alpha  occ. eigenvalues --  -14.34529 -10.31714 -10.25408 -10.23870 -10.22903
 Alpha  occ. eigenvalues --  -10.22807 -10.21623 -10.21237 -10.21175 -10.20855
 Alpha  occ. eigenvalues --  -10.20520 -10.20426  -1.06856  -1.02610  -1.01800
 Alpha  occ. eigenvalues --   -1.01342  -1.00682  -0.99778  -0.97843  -0.97515
 Alpha  occ. eigenvalues --   -0.96744  -0.96493  -0.95837  -0.85279  -0.81957
 Alpha  occ. eigenvalues --   -0.76584  -0.74381  -0.71509  -0.66448  -0.62599
 Alpha  occ. eigenvalues --   -0.59298  -0.58102  -0.57073  -0.55038  -0.54650
 Alpha  occ. eigenvalues --   -0.53897  -0.53377  -0.52992  -0.52406  -0.50947
 Alpha  occ. eigenvalues --   -0.50473  -0.49401  -0.49078  -0.48223  -0.47874
 Alpha  occ. eigenvalues --   -0.47412  -0.46592  -0.45017  -0.44352  -0.43910
 Alpha  occ. eigenvalues --   -0.42125  -0.41755  -0.41643  -0.40626  -0.40426
 Alpha  occ. eigenvalues --   -0.40060  -0.39553  -0.39276  -0.38062  -0.37597
 Alpha  occ. eigenvalues --   -0.37110  -0.36214  -0.35841  -0.35338  -0.34814
 Alpha  occ. eigenvalues --   -0.33622  -0.32693  -0.32191  -0.31401  -0.30400
 Alpha  occ. eigenvalues --   -0.29813  -0.29223  -0.28970  -0.28865  -0.27724
 Alpha  occ. eigenvalues --   -0.27566  -0.27377  -0.24084  -0.21900
 Alpha virt. eigenvalues --   -0.03500  -0.00785   0.00435   0.01766   0.02917
 Alpha virt. eigenvalues --    0.03083   0.03442   0.04604   0.05003   0.05329
 Alpha virt. eigenvalues --    0.06514   0.06956   0.07217   0.08171   0.08647

  Beta  occ. eigenvalues --  -19.16485 -19.15434 -19.14820 -19.14261 -19.13281
  Beta  occ. eigenvalues --  -19.12734 -19.12628 -19.11555 -19.09824 -14.40510
  Beta  occ. eigenvalues --  -14.34026 -10.31715 -10.25404 -10.23085 -10.22967
  Beta  occ. eigenvalues --  -10.22722 -10.21374 -10.21277 -10.20979 -10.20843
  Beta  occ. eigenvalues --  -10.20664 -10.20492  -1.06835  -1.02607  -1.01799
  Beta  occ. eigenvalues --   -1.01340  -1.00680  -0.99777  -0.97841  -0.97485
  Beta  occ. eigenvalues --   -0.96683  -0.96007  -0.95516  -0.84941  -0.81103
  Beta  occ. eigenvalues --   -0.76304  -0.74208  -0.70648  -0.66150  -0.62403
  Beta  occ. eigenvalues --   -0.58925  -0.57994  -0.56939  -0.54951  -0.54573
  Beta  occ. eigenvalues --   -0.53896  -0.53368  -0.52979  -0.52398  -0.50915
  Beta  occ. eigenvalues --   -0.50465  -0.49211  -0.48968  -0.48136  -0.47601
  Beta  occ. eigenvalues --   -0.47108  -0.46328  -0.44973  -0.43827  -0.43599
  Beta  occ. eigenvalues --   -0.41850  -0.41532  -0.40971  -0.40551  -0.40152
  Beta  occ. eigenvalues --   -0.39978  -0.39443  -0.39196  -0.37969  -0.37468
  Beta  occ. eigenvalues --   -0.37004  -0.36077  -0.35713  -0.35145  -0.33617
  Beta  occ. eigenvalues --   -0.33404  -0.32687  -0.32182  -0.31395  -0.30399
  Beta  occ. eigenvalues --   -0.29465  -0.28957  -0.28414  -0.27931  -0.27548
  Beta  occ. eigenvalues --   -0.27393  -0.27130  -0.23778
  Beta virt. eigenvalues --   -0.13940  -0.02443  -0.00726   0.01653   0.01804
  Beta virt. eigenvalues --    0.03027   0.03127   0.04115   0.04658   0.05335
  Beta virt. eigenvalues --    0.06513   0.06675   0.07003   0.07305   0.08189

 Mulliken atomic charges:
              1
     1  O   -0.475382
     2  C    0.102290
     3  O   -0.401691
     4  C   -0.156004
     5  C   -0.382807
     6  N   -0.423122
     7  C    0.366914
     8  C   -0.320844
     9  N   -0.265357
    10  C    0.078930
    11  C    0.227038
    12  C   -0.283444
    13  C   -0.261932
    14  C   -0.110704
    15  C   -0.138972
    16  H    0.306849
    17  H    0.270926
    18  H    0.168419
    19  H    0.190339
    20  H    0.317793
    21  H    0.308816
    22  H    0.158358
    23  H    0.296721
    24  H    0.147537
    25  H    0.160429
    26  H    0.138352
    27  H    0.135909
    28  O   -0.678972
    29  H    0.307899
    30  O   -0.585901
    31  H    0.344304
    32  H    0.341758
    33  O   -0.632369
    34  H    0.316232
    35  H    0.330240
    36  O   -0.592763
    37  H    0.317367
    38  H    0.336241
    39  O   -0.605651
    40  H    0.333058
    41  H    0.319524
    42  O   -0.615419
    43  H    0.330377
    44  H    0.315893
    45  H    0.316337
    46  O   -0.682819
    47  H    0.329305
 Sum of Mulliken charges=   0.00000

 Dipole moment (field-independent basis, Debye):
    X=    17.9455    Y=   -21.0809    Z=    -1.7879  Tot=    27.7424
 Quadrupole moment (field-independent basis, Debye-Ang):
   XX=   -93.4050   YY=  -148.2682   ZZ=  -127.3859
   XY=     6.4310   XZ=    -6.2660   YZ=     5.5708

 Normal termination of Gaussian 03 at Wed Aug  2 11:21:43 2006.
