 Gaussian 03, Revision E.01,

 --------------------------------------------------------------
 #p opt=tight b3lyp/cc-pvdz scf=tight integral=(grid=ultrafine)
 --------------------------------------------------------------

 ----------------------------------------
 Test molecule for MPS module in Spinach.
 ----------------------------------------
 Symbolic Z-matrix:
 Charge =  0 Multiplicity = 1

 SCF Done:  E(RB+HF-LYP) =  -294.524673217     A.U. after   13 cycles
 SCF Done:  E(RB+HF-LYP) =  -294.533761719     A.U. after   12 cycles
 SCF Done:  E(RB+HF-LYP) =  -294.534617879     A.U. after   11 cycles
 SCF Done:  E(RB+HF-LYP) =  -294.534729318     A.U. after   10 cycles
 SCF Done:  E(RB+HF-LYP) =  -294.534759588     A.U. after   10 cycles
 SCF Done:  E(RB+HF-LYP) =  -294.534765612     A.U. after    8 cycles
 SCF Done:  E(RB+HF-LYP) =  -294.534766917     A.U. after    8 cycles
 SCF Done:  E(RB+HF-LYP) =  -294.534767117     A.U. after    7 cycles
 SCF Done:  E(RB+HF-LYP) =  -294.534767155     A.U. after    6 cycles
 SCF Done:  E(RB+HF-LYP) =  -294.534767159     A.U. after    5 cycles
 SCF Done:  E(RB+HF-LYP) =  -294.534767160     A.U. after    4 cycles
 Optimization completed.
    -- Stationary point found.
 Normal termination of Gaussian 03 at Thu Oct 27 19:38:51 2011.
 Gaussian 03:  IA64L-G03RevE.01 11-Sep-2007

 ----------------------------------------------------------------------
 #p nmr=(giao,spinspin) b3lyp/EPR-II scf=tight geom=checkpoint integral
 =(grid=ultrafine)
 ----------------------------------------------------------------------

 Test molecule for MPS module in Spinach.
 ----------------------------------------
 Redundant internal coordinates taken from checkpoint file:
 test.chk
 Charge =  0 Multiplicity = 1

                         Standard orientation:
 ---------------------------------------------------------------------
 Center     Atomic     Atomic              Coordinates (Angstroms)
 Number     Number      Type              X           Y           Z
 ---------------------------------------------------------------------
    1          6             0       -1.250883    0.039803   -0.449723
    2          6             0       -0.978522    1.121062    0.537330
    3          6             0        0.156532    0.578269   -0.349135
    4          1             0       -1.843794    0.233748   -1.348249
    5          1             0       -0.956528    0.821971    1.588049
    6          1             0       -1.358071    2.126933    0.344525
    7          1             0        0.478497    1.225507   -1.170251
    8          9             0       -1.484621   -1.223650    0.046254
    9          6             0        1.221652   -0.253143    0.253223
   10          1             0        0.892224   -0.979917    1.003144
   11          6             0        2.518702   -0.174382   -0.064244
   12          1             0        3.258726   -0.818464    0.415824
   13          1             0        2.885651    0.533413   -0.814026
 ---------------------------------------------------------------------

 SCF Done:  E(RB+HF-LYP) =  -294.585465408     A.U. after   12 cycles

  1  C    Isotropic =   113.8445   Anisotropy =   116.1558

  2  C    Isotropic =   172.8174   Anisotropy =    46.7397

  3  C    Isotropic =   163.7505   Anisotropy =    73.0484

  4  H    Isotropic =    27.1817   Anisotropy =     7.4666

  5  H    Isotropic =    30.9576   Anisotropy =     9.2800

  6  H    Isotropic =    30.8972   Anisotropy =    12.6739

  7  H    Isotropic =    30.2361   Anisotropy =    10.1448

  8  F    Isotropic =   412.8446   Anisotropy =    58.4677

  9  C    Isotropic =    54.9896   Anisotropy =   162.8989

 10  H    Isotropic =    25.5428   Anisotropy =     6.7058

 11  C    Isotropic =    74.4651   Anisotropy =   130.9626

 12  H    Isotropic =    26.6095   Anisotropy =     5.7070

 13  H    Isotropic =    26.3135   Anisotropy =     5.8468

 The electronic state is 1-A.
 Alpha  occ. eigenvalues --  -24.69459 -10.28160 -10.21834 -10.20885 -10.20630
 Alpha  occ. eigenvalues --  -10.18804  -1.20539  -0.87663  -0.76831  -0.63226
 Alpha  occ. eigenvalues --   -0.62090  -0.56756  -0.52648  -0.50854  -0.45613
 Alpha  occ. eigenvalues --   -0.43911  -0.42800  -0.40552  -0.39722  -0.35251
 Alpha  occ. eigenvalues --   -0.33450  -0.29782  -0.24682
 Alpha virt. eigenvalues --    0.00134   0.02197   0.03427   0.03994   0.04740
 Alpha virt. eigenvalues --    0.07145   0.09361   0.12969   0.14829   0.16082
 Alpha virt. eigenvalues --    0.17981   0.19441   0.20403   0.21098   0.22585

 Mulliken atomic charges:
              1
     1  C    0.048710
     2  C   -0.384705
     3  C   -0.065438
     4  H    0.137589
     5  H    0.181857
     6  H    0.156358
     7  H    0.115696
     8  F   -0.193205
     9  C    0.045920
    10  H    0.121754
    11  C   -0.478735
    12  H    0.154804
    13  H    0.159396
 Sum of Mulliken charges=   0.00000

 Dipole moment (field-independent basis, Debye):
    X=     0.0680    Y=     1.7980    Z=    -0.4652  Tot=     1.8584
 Quadrupole moment (field-independent basis, Debye-Ang):
   XX=   -36.0959   YY=   -37.0525   ZZ=   -34.2981
   XY=    -3.2530   XZ=     0.7564   YZ=    -2.1305

 Normal termination of Gaussian 03 at Thu Oct 27 19:42:07 2011.
