 Gaussian 03, Revision D.01,

 ----------------------------------------------------------------------
 #p opt=(tight,gdiis) ub3lyp/EPR-II scf=tight nosymm integral=(grid=ult
 rafine)
 ----------------------------------------------------------------------

 --------------------
 Cyclopentyl radical.
 --------------------
 Symbolic Z-matrix:
 Charge =  0 Multiplicity = 2

 SCF Done:  E(UB+HF-LYP) =  -195.898082544     A.U. after   13 cycles
 SCF Done:  E(UB+HF-LYP) =  -195.913833124     A.U. after   11 cycles
 SCF Done:  E(UB+HF-LYP) =  -195.919580732     A.U. after   11 cycles
 SCF Done:  E(UB+HF-LYP) =  -195.922927396     A.U. after   11 cycles
 SCF Done:  E(UB+HF-LYP) =  -195.924608256     A.U. after   11 cycles
 SCF Done:  E(UB+HF-LYP) =  -195.925866612     A.U. after   11 cycles
 SCF Done:  E(UB+HF-LYP) =  -195.927264508     A.U. after   11 cycles
 SCF Done:  E(UB+HF-LYP) =  -195.928257707     A.U. after   11 cycles
 SCF Done:  E(UB+HF-LYP) =  -195.928648085     A.U. after   10 cycles
 SCF Done:  E(UB+HF-LYP) =  -195.928943122     A.U. after   10 cycles
 SCF Done:  E(UB+HF-LYP) =  -195.929149574     A.U. after   10 cycles
 SCF Done:  E(UB+HF-LYP) =  -195.929218291     A.U. after   10 cycles
 SCF Done:  E(UB+HF-LYP) =  -195.929228306     A.U. after    9 cycles
 SCF Done:  E(UB+HF-LYP) =  -195.929230113     A.U. after    8 cycles
 SCF Done:  E(UB+HF-LYP) =  -195.929231170     A.U. after    8 cycles
 SCF Done:  E(UB+HF-LYP) =  -195.929231425     A.U. after    7 cycles
 SCF Done:  E(UB+HF-LYP) =  -195.929231448     A.U. after    6 cycles
 SCF Done:  E(UB+HF-LYP) =  -195.929231450     A.U. after    5 cycles
 Optimization completed.
    -- Stationary point found.
 Normal termination of Gaussian 03 at Fri Jul 10 18:08:30 2009.
 Gaussian 03:  IA32L-G03RevD.01 13-Oct-2005

 ----------------------------------------------------------------------
 #p nmr=giao ub3lyp/EPR-II scf=tight nosymm integral=(grid=ultrafine) g
 eom=checkpoint
 ----------------------------------------------------------------------

 Cyclopentyl radical.
 --------------------
 Redundant internal coordinates taken from checkpoint file:
 cp.chk
 Charge =  0 Multiplicity = 2

                          Input orientation:
 ---------------------------------------------------------------------
 Center     Atomic     Atomic              Coordinates (Angstroms)
 Number     Number      Type              X           Y           Z
 ---------------------------------------------------------------------
    1          6             0       -0.342960   -1.092380   -0.194937
    2          6             0        1.164516   -1.133532   -0.205899
    3          6             0        1.571992    0.306590    0.206372
    4          6             0        0.408317    1.189900   -0.303553
    5          6             0       -0.857085    0.320237   -0.074694
    6          1             0       -0.978602   -1.970008   -0.264659
    7          1             0        1.546315   -1.365117   -1.214816
    8          1             0        1.579455   -1.899679    0.461822
    9          1             0        1.630957    0.370101    1.299327
   10          1             0        2.542907    0.607885   -0.198368
   11          1             0        0.357476    2.158952    0.202039
   12          1             0        0.531970    1.378504   -1.376492
   13          1             0       -1.271978    0.505660    0.930693
   14          1             0       -1.662546    0.547500   -0.785034
 ---------------------------------------------------------------------

 SCF Done:  E(UB+HF-LYP) =  -195.929231450     A.U. after   12 cycles

  1  C    Isotropic =    78.5396   Anisotropy =    83.9204

  2  C    Isotropic =   151.6751   Anisotropy =    22.9867

  3  C    Isotropic =   158.3903   Anisotropy =    20.3954

  4  C    Isotropic =   158.3862   Anisotropy =    20.3967

  5  C    Isotropic =   151.6668   Anisotropy =    22.9826

  6  H    Isotropic =    26.8906   Anisotropy =     2.6411

  7  H    Isotropic =    29.2090   Anisotropy =     9.5101

  8  H    Isotropic =    29.2165   Anisotropy =     8.4662

  9  H    Isotropic =    30.2019   Anisotropy =     9.2846

 10  H    Isotropic =    29.9273   Anisotropy =     8.9438

 11  H    Isotropic =    29.9275   Anisotropy =     8.9433

 12  H    Isotropic =    30.2015   Anisotropy =     9.2862

 13  H    Isotropic =    29.2097   Anisotropy =     9.5093

 14  H    Isotropic =    29.2166   Anisotropy =     8.4661

 Alpha  occ. eigenvalues --  -10.18568 -10.18321 -10.18319 -10.18045 -10.18025
 Alpha  occ. eigenvalues --   -0.82739  -0.70619  -0.69549  -0.56720  -0.54709
 Alpha  occ. eigenvalues --   -0.47960  -0.46946  -0.41175  -0.38227  -0.34875
 Alpha  occ. eigenvalues --   -0.34855  -0.33424  -0.33038  -0.32095  -0.17769
 Alpha virt. eigenvalues --    0.02640   0.04465   0.04818   0.05680   0.06568
 Alpha virt. eigenvalues --    0.15864   0.17392   0.18070   0.20012   0.20883
 Alpha virt. eigenvalues --    0.21568   0.22011   0.23490   0.25703   0.27219

  Beta  occ. eigenvalues --  -10.18407 -10.18407 -10.18037 -10.18017 -10.17196
  Beta  occ. eigenvalues --   -0.82009  -0.70429  -0.68171  -0.56550  -0.52969
  Beta  occ. eigenvalues --   -0.47501  -0.46403  -0.40684  -0.37040  -0.34336
  Beta  occ. eigenvalues --   -0.34143  -0.33276  -0.32949  -0.31862
  Beta virt. eigenvalues --   -0.03456   0.02713   0.04496   0.04942   0.05680
  Beta virt. eigenvalues --    0.06897   0.16202   0.17679   0.18449   0.20312
  Beta virt. eigenvalues --    0.21029   0.21979   0.22123   0.24307   0.26285

 Mulliken atomic charges:
              1
     1  C   -0.114006
     2  C   -0.269284
     3  C   -0.297310
     4  C   -0.297299
     5  C   -0.269274
     6  H    0.085109
     7  H    0.151646
     8  H    0.140611
     9  H    0.156258
    10  H    0.132526
    11  H    0.132519
    12  H    0.156260
    13  H    0.151639
    14  H    0.140605
 Sum of Mulliken charges=   0.00000

 Dipole moment (field-independent basis, Debye):
    X=     0.1326    Y=     0.1830    Z=     0.0147  Tot=     0.2264
 Quadrupole moment (field-independent basis, Debye-Ang):
   XX=   -32.1305   YY=   -32.4351   ZZ=   -32.3276
   XY=    -0.1730   XZ=    -0.1289   YZ=     0.0446

 Normal termination of Gaussian 03 at Fri Jul 10 18:10:16 2009.
