 Gaussian 03, Revision E.01,
 Gaussian 03:  IA64L-G03RevE.01 11-Sep-2007

 ----------------------------------------------------------------------
 #p nmr=giao ub3lyp/EPR-II guess=mix geom=checkpoint scf=tight integral
 =(grid=ultrafine)
 ----------------------------------------------------------------------

 Nitroxide optimization.
 -----------------------
 Redundant internal coordinates taken from checkpoint file:
 nitroxide.chk
 Charge =  0 Multiplicity = 2

                         Standard orientation:
 ---------------------------------------------------------------------
 Center     Atomic     Atomic              Coordinates (Angstroms)
 Number     Number      Type              X           Y           Z
 ---------------------------------------------------------------------
    1          6             0        0.611070   -1.760920    1.453015
    2          1             0        0.070743   -1.133262    2.166025
    3          1             0        0.277133   -2.793571    1.594437
    4          1             0        1.678277   -1.705609    1.680736
    5          6             0        1.042717   -2.353627   -0.954427
    6          1             0        0.550344   -3.324910   -0.845881
    7          1             0        0.958057   -2.034163   -1.997373
    8          1             0        2.101112   -2.461768   -0.714516
    9          6             0       -1.135525   -1.246918   -0.342096
   10          1             0       -1.263773   -1.241838   -1.434081
   11          1             0       -1.630066   -2.146869    0.038065
   12          6             0       -1.825634   -0.000056    0.218807
   13          1             0       -1.779411   -0.000054    1.312207
   14          6             0       -1.135601    1.246849   -0.342095
   15          1             0       -1.263847    1.241762   -1.434080
   16          1             0       -1.630194    2.146771    0.038067
   17          6             0        0.371841    1.331067   -0.015866
   18          6             0        0.610963    1.760955    1.453016
   19          1             0        0.070682    1.133258    2.166027
   20          1             0        1.678175    1.705716    1.680734
   21          1             0        0.276957    2.793583    1.594442
   22          6             0        1.042573    2.353691   -0.954425
   23          1             0        0.550142    3.324943   -0.845877
   24          1             0        2.100961    2.461894   -0.714514
   25          1             0        0.957931    2.034223   -1.997372
   26          6             0        0.371922   -1.331046   -0.015867
   27          7             0        1.030153    0.000031   -0.261137
   28          8             0        2.315184    0.000070   -0.237643
   29          8             0       -3.228151   -0.000102   -0.066536
   30          1             0       -3.336514   -0.000032   -1.026020
 ---------------------------------------------------------------------

 SCF Done:  E(UB+HF-LYP) =  -559.055545375     A.U. after   17 cycles

  1  C    Isotropic =   159.3069   Anisotropy =    38.2295

  2  H    Isotropic =    30.4713   Anisotropy =     5.3448

  3  H    Isotropic =    31.1717   Anisotropy =     8.8512

  4  H    Isotropic =    30.3680   Anisotropy =     7.4287

  5  C    Isotropic =   155.1907   Anisotropy =    43.7776

  6  H    Isotropic =    31.2860   Anisotropy =     8.0505

  7  H    Isotropic =    31.0418   Anisotropy =     8.0220

  8  H    Isotropic =    29.8893   Anisotropy =     8.2493

  9  C    Isotropic =   136.3344   Anisotropy =    37.7594

 10  H    Isotropic =    30.6363   Anisotropy =     3.4769

 11  H    Isotropic =    29.7772   Anisotropy =     5.1756

 12  C    Isotropic =   123.5125   Anisotropy =    63.1923

 13  H    Isotropic =    27.8216   Anisotropy =     3.1604

 14  C    Isotropic =   136.3343   Anisotropy =    37.7596

 15  H    Isotropic =    30.6363   Anisotropy =     3.4768

 16  H    Isotropic =    29.7772   Anisotropy =     5.1756

 17  C    Isotropic =   117.1617   Anisotropy =    50.9687

 18  C    Isotropic =   159.3068   Anisotropy =    38.2296

 19  H    Isotropic =    30.4713   Anisotropy =     5.3448

 20  H    Isotropic =    30.3680   Anisotropy =     7.4287

 21  H    Isotropic =    31.1717   Anisotropy =     8.8512

 22  C    Isotropic =   155.1906   Anisotropy =    43.7777

 23  H    Isotropic =    31.2860   Anisotropy =     8.0505

 24  H    Isotropic =    29.8893   Anisotropy =     8.2493

 25  H    Isotropic =    31.0418   Anisotropy =     8.0220

 26  C    Isotropic =   117.1619   Anisotropy =    50.9688

 27  N    Isotropic =   -14.5186   Anisotropy =   153.1168

 28  O    Isotropic =  -316.7669   Anisotropy =   844.6702

 29  O    Isotropic =   260.6702   Anisotropy =    52.9148

 30  H    Isotropic =    32.2497   Anisotropy =    14.3788

 The electronic state is 2-A.
 Alpha  occ. eigenvalues --  -19.15005 -19.14073 -14.41748 -10.24909 -10.24681
 Alpha  occ. eigenvalues --  -10.24681 -10.19663 -10.19663 -10.18356 -10.18356
 Alpha  occ. eigenvalues --  -10.17773 -10.17773  -1.09047  -1.02948  -0.86741
 Alpha  occ. eigenvalues --   -0.82313  -0.76149  -0.72207  -0.69987  -0.69426
 Alpha  occ. eigenvalues --   -0.69044  -0.62028  -0.60149  -0.53332  -0.50710
 Alpha  occ. eigenvalues --   -0.49294  -0.47862  -0.47753  -0.45901  -0.45421
 Alpha  occ. eigenvalues --   -0.43425  -0.41971  -0.41150  -0.40514  -0.39632
 Alpha  occ. eigenvalues --   -0.38661  -0.38104  -0.37915  -0.37559  -0.37044
 Alpha  occ. eigenvalues --   -0.36286  -0.35138  -0.34186  -0.33763  -0.31785
 Alpha  occ. eigenvalues --   -0.27916  -0.25724  -0.19755
 Alpha virt. eigenvalues --    0.00494   0.02289   0.02609   0.03181   0.05805
 Alpha virt. eigenvalues --    0.06138   0.06305   0.07300   0.09825   0.12146
 Alpha virt. eigenvalues --    0.12180   0.13617   0.13962   0.15600   0.15647

  Beta  occ. eigenvalues --  -19.15004 -19.12686 -14.40669 -10.24911 -10.24716
  Beta  occ. eigenvalues --  -10.24716 -10.19660 -10.19660 -10.18301 -10.18301
  Beta  occ. eigenvalues --  -10.17753 -10.17753  -1.06564  -1.02943  -0.85838
  Beta  occ. eigenvalues --   -0.82210  -0.75676  -0.70804  -0.69835  -0.69372
  Beta  occ. eigenvalues --   -0.68980  -0.61898  -0.59856  -0.52981  -0.50246
  Beta  occ. eigenvalues --   -0.49099  -0.47279  -0.46618  -0.45371  -0.44257
  Beta  occ. eigenvalues --   -0.43391  -0.41715  -0.40613  -0.40109  -0.39549
  Beta  occ. eigenvalues --   -0.38468  -0.38073  -0.37411  -0.36997  -0.36954
  Beta  occ. eigenvalues --   -0.35278  -0.35036  -0.34066  -0.31827  -0.30527
  Beta  occ. eigenvalues --   -0.27897  -0.24498
  Beta virt. eigenvalues --   -0.05666   0.00519   0.02298   0.02647   0.03208
  Beta virt. eigenvalues --    0.05816   0.06144   0.06345   0.07413   0.10334
  Beta virt. eigenvalues --    0.12188   0.12311   0.13893   0.14075   0.15748

 Mulliken atomic charges:
              1
     1  C   -0.508395
     2  H    0.134899
     3  H    0.144210
     4  H    0.173228
     5  C   -0.544804
     6  H    0.140409
     7  H    0.152790
     8  H    0.174437
     9  C   -0.340422
    10  H    0.126314
    11  H    0.140404
    12  C   -0.034128
    13  H    0.133288
    14  C   -0.340426
    15  H    0.126314
    16  H    0.140404
    17  C    0.388554
    18  C   -0.508394
    19  H    0.134900
    20  H    0.173228
    21  H    0.144210
    22  C   -0.544803
    23  H    0.140409
    24  H    0.174438
    25  H    0.152790
    26  C    0.388558
    27  N    0.038439
    28  O   -0.385200
    29  O   -0.369390
    30  H    0.253742
 Sum of Mulliken charges=   0.00000

 Dipole moment (field-independent basis, Debye):
    X=    -1.4699    Y=     0.0001    Z=    -0.5250  Tot=     1.5609
 Quadrupole moment (field-independent basis, Debye-Ang):
   XX=   -89.7364   YY=   -70.8509   ZZ=   -72.0983
   XY=    -0.0010   XZ=     5.7683   YZ=     0.0000

 Normal termination of Gaussian 03 at Fri Mar  5 12:06:01 2010.
