 Gaussian 03, Revision E.01,

 -------------------------------------------------------------
 #p opt=tight b3lyp/EPR-II scf=tight integral=(grid=ultrafine)
 -------------------------------------------------------------

 ---------------------------------
 Perfluoropyrene neutral molecule.
 ---------------------------------
 Symbolic Z-matrix:
 Charge =  0 Multiplicity = 1

 SCF Done:  E(RB+HF-LYP) =  -1608.42093136     A.U. after   13 cycles
 SCF Done:  E(RB+HF-LYP) =  -1608.42741263     A.U. after   13 cycles
 SCF Done:  E(RB+HF-LYP) =  -1608.42805366     A.U. after   13 cycles
 SCF Done:  E(RB+HF-LYP) =  -1608.42807569     A.U. after   17 cycles
 SCF Done:  E(RB+HF-LYP) =  -1608.42807708     A.U. after   17 cycles
 SCF Done:  E(RB+HF-LYP) =  -1608.42807719     A.U. after   17 cycles
 Optimization completed.
    -- Stationary point found.
 Normal termination of Gaussian 03 at Sat Mar 12 15:01:15 2011.
 Gaussian 03:  IA64L-G03RevE.01 11-Sep-2007

 ----------------------------------------------------------------------
 #p nmr=(giao,spinspin) b3lyp/EPR-II scf=tight integral=(grid=ultrafine
 ) geom=checkpoint
 ----------------------------------------------------------------------

 Perfluoropyrene neutral molecule.
 ---------------------------------
 Redundant internal coordinates taken from checkpoint file:
 pfp_neutral.chk
 Charge =  0 Multiplicity = 1

                         Standard orientation:
 ---------------------------------------------------------------------
 Center     Atomic     Atomic              Coordinates (Angstroms)
 Number     Number      Type              X           Y           Z
 ---------------------------------------------------------------------
    1          6             0        3.538240    0.000000   -0.000371
    2          6             0        2.845817    1.213178   -0.000309
    3          6             0        1.438296    1.244422   -0.000161
    4          6             0        0.717780    0.000000   -0.000074
    5          6             0        1.438296   -1.244423   -0.000139
    6          6             0        2.845816   -1.213178   -0.000287
    7          6             0        0.683451    2.467717   -0.000093
    8          6             0       -0.717780    0.000000    0.000076
    9          6             0       -1.438296    1.244423    0.000141
   10          6             0       -0.683450    2.467718    0.000051
   11          6             0       -2.845817    1.213179    0.000289
   12          6             0       -3.538240    0.000001    0.000371
   13          6             0       -2.845816   -1.213178    0.000309
   14          6             0       -1.438296   -1.244422    0.000161
   15          6             0       -0.683450   -2.467718    0.000092
   16          6             0        0.683450   -2.467718   -0.000050
   17          9             0       -1.324809   -3.643091    0.000168
   18          9             0        1.324806   -3.643092   -0.000108
   19          9             0        3.572791   -2.335005   -0.000353
   20          9             0        4.872907   -0.000001   -0.000511
   21          9             0        3.572791    2.335005   -0.000395
   22          9             0        1.324807    3.643092   -0.000172
   23          9             0       -1.324807    3.643092    0.000106
   24          9             0       -3.572790    2.335006    0.000355
   25          9             0       -4.872906    0.000000    0.000511
   26          9             0       -3.572790   -2.335005    0.000394
 ---------------------------------------------------------------------

 SCF Done:  E(RB+HF-LYP) =  -1608.42807719     A.U. after   13 cycles

  1  C    Isotropic =    43.3176   Anisotropy =    89.6860

  2  C    Isotropic =    40.0627   Anisotropy =    87.4437

  3  C    Isotropic =    75.3369   Anisotropy =   140.2657

  4  C    Isotropic =    71.0346   Anisotropy =   169.3089

  5  C    Isotropic =    75.3369   Anisotropy =   140.2656

  6  C    Isotropic =    40.0627   Anisotropy =    87.4438

  7  C    Isotropic =    40.8143   Anisotropy =    78.4573

  8  C    Isotropic =    71.0346   Anisotropy =   169.3089

  9  C    Isotropic =    75.3368   Anisotropy =   140.2658

 10  C    Isotropic =    40.8143   Anisotropy =    78.4573

 11  C    Isotropic =    40.0627   Anisotropy =    87.4437

 12  C    Isotropic =    43.3176   Anisotropy =    89.6860

 13  C    Isotropic =    40.0627   Anisotropy =    87.4438

 14  C    Isotropic =    75.3369   Anisotropy =   140.2656

 15  C    Isotropic =    40.8143   Anisotropy =    78.4571

 16  C    Isotropic =    40.8143   Anisotropy =    78.4571

 17  F    Isotropic =   322.7097   Anisotropy =   184.2136

 18  F    Isotropic =   322.7097   Anisotropy =   184.2136

 19  F    Isotropic =   312.3052   Anisotropy =   193.0770

 20  F    Isotropic =   333.3483   Anisotropy =   185.4837

 21  F    Isotropic =   312.3053   Anisotropy =   193.0770

 22  F    Isotropic =   322.7097   Anisotropy =   184.2139

 23  F    Isotropic =   322.7097   Anisotropy =   184.2139

 24  F    Isotropic =   312.3053   Anisotropy =   193.0769

 25  F    Isotropic =   333.3483   Anisotropy =   185.4838

 26  F    Isotropic =   312.3051   Anisotropy =   193.0770

 The electronic state is 1-A.
 Alpha  occ. eigenvalues --  -24.76349 -24.76349 -24.76009 -24.76009 -24.76009
 Alpha  occ. eigenvalues --  -24.76009 -24.75503 -24.75503 -24.75503 -24.75503
 Alpha  occ. eigenvalues --  -10.34384 -10.34384 -10.34379 -10.34379 -10.34109
 Alpha  occ. eigenvalues --  -10.34109 -10.33685 -10.33685 -10.33616 -10.33616
 Alpha  occ. eigenvalues --  -10.28551 -10.28509 -10.28335 -10.28334 -10.28330
 Alpha  occ. eigenvalues --  -10.28329  -1.29164  -1.29124  -1.28464  -1.28169
 Alpha  occ. eigenvalues --   -1.28066  -1.27644  -1.27207  -1.26970  -1.26517
 Alpha  occ. eigenvalues --   -1.26446  -0.96211  -0.92170  -0.89426  -0.86614
 Alpha  occ. eigenvalues --   -0.83422  -0.80546  -0.80405  -0.78205  -0.71965
 Alpha  occ. eigenvalues --   -0.71573  -0.69604  -0.69136  -0.64862  -0.62996
 Alpha  occ. eigenvalues --   -0.62909  -0.62672  -0.61612  -0.60205  -0.58990
 Alpha  occ. eigenvalues --   -0.58962  -0.57732  -0.57248  -0.56616  -0.56078
 Alpha  occ. eigenvalues --   -0.55057  -0.54924  -0.54433  -0.53352  -0.53303
 Alpha  occ. eigenvalues --   -0.52711  -0.52595  -0.51487  -0.50815  -0.49875
 Alpha  occ. eigenvalues --   -0.49772  -0.49646  -0.49387  -0.49050  -0.48863
 Alpha  occ. eigenvalues --   -0.46782  -0.46313  -0.45675  -0.45310  -0.44714
 Alpha  occ. eigenvalues --   -0.44388  -0.43932  -0.43283  -0.41372  -0.40378
 Alpha  occ. eigenvalues --   -0.39719  -0.39617  -0.37122  -0.33048  -0.32513
 Alpha  occ. eigenvalues --   -0.29606  -0.28375  -0.24487
 Alpha virt. eigenvalues --   -0.11232  -0.09125  -0.06008  -0.04122  -0.03885
 Alpha virt. eigenvalues --   -0.02628  -0.00613   0.00247   0.00617   0.02241
 Alpha virt. eigenvalues --    0.03451   0.04834   0.05229   0.06455   0.07000

 Mulliken atomic charges:
              1
     1  C    0.241372
     2  C   -0.023942
     3  C    0.294461
     4  C   -0.160156
     5  C    0.294462
     6  C   -0.023942
     7  C    0.004482
     8  C   -0.160156
     9  C    0.294461
    10  C    0.004482
    11  C   -0.023942
    12  C    0.241373
    13  C   -0.023942
    14  C    0.294462
    15  C    0.004482
    16  C    0.004483
    17  F   -0.128140
    18  F   -0.128140
    19  F   -0.125606
    20  F   -0.123727
    21  F   -0.125606
    22  F   -0.128140
    23  F   -0.128140
    24  F   -0.125606
    25  F   -0.123727
    26  F   -0.125606
 Sum of Mulliken charges=   0.00000

 Dipole moment (field-independent basis, Debye):
    X=     0.0000    Y=     0.0000    Z=     0.0000  Tot=     0.0000
 Quadrupole moment (field-independent basis, Debye-Ang):
   XX=  -156.0897   YY=  -158.9605   ZZ=  -132.9021
   XY=     0.0000   XZ=     0.0024   YZ=     0.0002

 Normal termination of Gaussian 03 at Sat Mar 12 17:30:12 2011.
