 Gaussian 03, Revision E.01,
 Gaussian 03:  EM64L-G03RevE.01 11-Sep-2007

 ----------------------------------------------------------------------
 #p nmr=giao ub3lyp/EPR-III geom=checkpoint scf=tight integral=(grid=ul
 trafine) guess=read
 ----------------------------------------------------------------------

 1,3-DCB anion radical in vacuum
 -------------------------------
 Redundant internal coordinates taken from checkpoint file:
 dcb.chk
 Charge = -1 Multiplicity = 2

                         Standard orientation:
 ---------------------------------------------------------------------
 Center     Atomic     Atomic              Coordinates (Angstroms)
 Number     Number      Type              X           Y           Z
 ---------------------------------------------------------------------
    1          6             0        0.000000    1.230173    1.394793
    2          6             0        0.000000    0.000000    2.064964
    3          6             0        0.000000   -1.230173    1.394793
    4          6             0        0.000000   -1.229504   -0.069296
    5          6             0        0.000000    0.000000   -0.755674
    6          6             0        0.000000    1.229504   -0.069296
    7          1             0        0.000000    2.171592    1.934188
    8          1             0        0.000000    0.000000    3.155529
    9          1             0        0.000000   -2.171592    1.934188
   10          1             0        0.000000    0.000000   -1.842799
   11          6             0        0.000000   -2.449181   -0.798491
   12          6             0        0.000000    2.449181   -0.798491
   13          7             0        0.000000   -3.475395   -1.382923
   14          7             0        0.000000    3.475395   -1.382923
 ---------------------------------------------------------------------

 SCF Done:  E(UB+HF-LYP) =  -416.939080264     A.U. after   14 cycles

  1  C    Isotropic =    70.4993   Anisotropy =    86.5668

  2  C    Isotropic =    32.6775   Anisotropy =   154.1322

  3  C    Isotropic =    70.4993   Anisotropy =    86.5668

  4  C    Isotropic =    75.6068   Anisotropy =    75.0856

  5  C    Isotropic =    16.8650   Anisotropy =   160.5193

  6  C    Isotropic =    75.6068   Anisotropy =    75.0856

  7  H    Isotropic =    28.3531   Anisotropy =     2.1804

  8  H    Isotropic =    26.4655   Anisotropy =     2.6385

  9  H    Isotropic =    28.3531   Anisotropy =     2.1804

 10  H    Isotropic =    26.0407   Anisotropy =     3.4557

 11  C    Isotropic =    39.8365   Anisotropy =   327.4586

 12  C    Isotropic =    39.8365   Anisotropy =   327.4586

 13  N    Isotropic =   -38.4613   Anisotropy =   304.6402

 14  N    Isotropic =   -38.4613   Anisotropy =   304.6402

 The electronic state is 2-A2.
 Alpha  occ. eigenvalues --  -14.17049 -14.17049 -10.07358 -10.07358 -10.06834
 Alpha  occ. eigenvalues --  -10.06583 -10.06577 -10.05214 -10.04133 -10.04131
 Alpha  occ. eigenvalues --   -0.76023  -0.75646  -0.71711  -0.63301  -0.62745
 Alpha  occ. eigenvalues --   -0.51320  -0.49798  -0.43514  -0.36412  -0.34477
 Alpha  occ. eigenvalues --   -0.32333  -0.30443  -0.26648  -0.25001  -0.23935
 Alpha  occ. eigenvalues --   -0.23093  -0.22644  -0.22599  -0.19493  -0.18923
 Alpha  occ. eigenvalues --   -0.18834  -0.13471  -0.12312   0.01962
 Alpha virt. eigenvalues --    0.08980   0.09037   0.10589   0.10766   0.12369
 Alpha virt. eigenvalues --    0.12805   0.12885   0.13965   0.14414   0.14841
 Alpha virt. eigenvalues --    0.15046   0.15303   0.15546   0.16446   0.16944

  Beta  occ. eigenvalues --  -14.16845 -14.16845 -10.07368 -10.07368 -10.06917
  Beta  occ. eigenvalues --  -10.06384 -10.06381 -10.05391 -10.03603 -10.03602
  Beta  occ. eigenvalues --   -0.75693  -0.75338  -0.71239  -0.62502  -0.62346
  Beta  occ. eigenvalues --   -0.50157  -0.49605  -0.43383  -0.35955  -0.34253
  Beta  occ. eigenvalues --   -0.32042  -0.30398  -0.25467  -0.24691  -0.23689
  Beta  occ. eigenvalues --   -0.22407  -0.22302  -0.22037  -0.18792  -0.18699
  Beta  occ. eigenvalues --   -0.18282  -0.12535  -0.09657
  Beta virt. eigenvalues --    0.08700   0.08988   0.09406   0.10561   0.10728
  Beta virt. eigenvalues --    0.12362   0.12748   0.12886   0.13937   0.14594
  Beta virt. eigenvalues --    0.14813   0.15152   0.15254   0.15783   0.16999

 Mulliken atomic charges:
              1
     1  C   -0.337135
     2  C    0.037030
     3  C   -0.337135
     4  C   -0.025399
     5  C   -0.268408
     6  C   -0.025399
     7  H    0.070927
     8  H    0.067883
     9  H    0.070927
    10  H    0.097051
    11  C    0.129605
    12  C    0.129605
    13  N   -0.304777
    14  N   -0.304777
 Sum of Mulliken charges=  -1.00000

 Dipole moment (field-independent basis, Debye):
    X=     0.0000    Y=     0.0000    Z=     3.5770  Tot=     3.5770
 Quadrupole moment (field-independent basis, Debye-Ang):
   XX=   -64.4852   YY=  -114.1697   ZZ=   -70.1616
   XY=     0.0000   XZ=     0.0000   YZ=     0.0000

 Normal termination of Gaussian 03 at Tue Mar 22 10:50:35 2011.
