 Gaussian 03, Revision E.01,
 Gaussian 03:  IA64L-G03RevE.01 11-Sep-2007

 ----------------------------------------------------------------------
 # nmr=(giao,spinspin) b3lyp/epr-II geom=connectivity integral=(grid=ul
 trafine)
 ----------------------------------------------------------------------

 ----------------------
 HJH_070910_Mol_EG1_nmr
 ----------------------
 Symbolic Z-matrix:
 Charge =  0 Multiplicity = 1

                         Standard orientation:
 ---------------------------------------------------------------------
 Center     Atomic     Atomic              Coordinates (Angstroms)
 Number     Number      Type              X           Y           Z
 ---------------------------------------------------------------------
    1          6             0        0.380500    0.284500    0.446700
    2          6             0        1.642000    0.342700    1.143000
    3          6             0        0.528900    1.306900    1.447600
    4          1             0        1.878000   -0.332000    1.779200
    5          1             0        2.430600    0.651700    0.690600
    6          2             0        0.604000    2.226700    1.186600
    7          2             0        0.051500    1.243000    2.274700
    8          6             0       -0.380500   -0.284500   -0.446700
    9          6             0       -1.642000   -0.342700   -1.143000
   10          6             0       -0.528900   -1.306900   -1.447600
   11          2             0       -1.878000    0.332000   -1.779200
   12          2             0       -2.430600   -0.651700   -0.690600
   13          1             0       -0.604000   -2.226700   -1.186600
   14          1             0       -0.051500   -1.243000   -2.274700
 ---------------------------------------------------------------------

 SCF Done:  E(RB+HF-LYP) =  -233.247034965     A.U. after   10 cycles

  1  C    Isotropic =    86.3197   Anisotropy =   183.9655

  2  C    Isotropic =   202.2601   Anisotropy =    51.2340

  3  C    Isotropic =   202.4474   Anisotropy =    51.5071

  4  H    Isotropic =    35.5161   Anisotropy =    14.8509

  5  H    Isotropic =    35.4137   Anisotropy =    14.8532

  6  He    Isotropic =    35.4878   Anisotropy =    14.8658

  7  He    Isotropic =    35.5525   Anisotropy =    14.8711

  8  C    Isotropic =    86.3197   Anisotropy =   183.9655

  9  C    Isotropic =   202.2601   Anisotropy =    51.2340

 10  C    Isotropic =   202.4474   Anisotropy =    51.5071

 11  He    Isotropic =    35.5161   Anisotropy =    14.8509

 12  He    Isotropic =    35.4137   Anisotropy =    14.8532

 13  H    Isotropic =    35.4878   Anisotropy =    14.8658

 14  H    Isotropic =    35.5525   Anisotropy =    14.8711

 The electronic state is 1-AG.
 Alpha  occ. eigenvalues --  -10.19776 -10.19667 -10.16316 -10.16316 -10.16175
 Alpha  occ. eigenvalues --  -10.16175  -0.88349  -0.86199  -0.66478  -0.64697
 Alpha  occ. eigenvalues --   -0.64046  -0.55437  -0.52304  -0.50112  -0.48877
 Alpha  occ. eigenvalues --   -0.38675  -0.38565  -0.36728  -0.32987  -0.29807
 Alpha  occ. eigenvalues --   -0.26351  -0.24014
 Alpha virt. eigenvalues --    0.02964   0.03118   0.03499   0.03910   0.06608
 Alpha virt. eigenvalues --    0.08474   0.11890   0.12424   0.17446   0.20039
 Alpha virt. eigenvalues --    0.23210   0.23666   0.23850   0.24122   0.25882

 Mulliken atomic charges:
              1
     1  C    0.039357
     2  C   -0.414277
     3  C   -0.412476
     4  H    0.197720
     5  H    0.196026
     6  He   0.196302
     7  He   0.197348
     8  C    0.039357
     9  C   -0.414277
    10  C   -0.412476
    11  He   0.197720
    12  He   0.196026
    13  H    0.196302
    14  H    0.197348
 Sum of Mulliken charges=   0.00000

 Dipole moment (field-independent basis, Debye):
    X=     0.0000    Y=     0.0000    Z=     0.0000  Tot=     0.0000
 Quadrupole moment (field-independent basis, Debye-Ang):
   XX=   -34.2125   YY=   -34.4891   ZZ=   -34.3590
   XY=     0.0215   XZ=     0.3357   YZ=     0.3058

 Normal termination of Gaussian 03 at Wed Sep  8 11:58:49 2010.
