 Gaussian 03, Revision E.01,
 Gaussian 03:  IA64L-G03RevE.01 11-Sep-2007

 ----------------------------------------------------------------------
 #p nmr=(giao,spinspin) rb3lyp/epr-iii integral=(grid=ultrafine) scf=ti
 ght
 ----------------------------------------------------------------------

 ---------------------------
 1-fluoro-2,4-dinitrobenzene
 ---------------------------
 Symbolic Z-matrix:
 Charge =  0 Multiplicity = 1

                         Standard orientation:
 ---------------------------------------------------------------------
 Center     Atomic     Atomic              Coordinates (Angstroms)
 Number     Number      Type              X           Y           Z
 ---------------------------------------------------------------------
    1          6             0        1.370136    0.141548    0.008072
    2          6             0        0.279378   -0.706820    0.004972
    3          6             0       -0.992421   -0.157566   -0.011656
    4          6             0       -1.153924    1.229482   -0.048843
    5          6             0       -0.045285    2.064879   -0.060895
    6          6             0        1.226766    1.522687   -0.025003
    7          1             0        0.406915   -1.777285    0.015249
    8          1             0       -0.203448    3.132585   -0.101519
    9          1             0        2.104955    2.149122   -0.027202
   10          9             0       -2.355649    1.785781   -0.108556
   11          7             0       -2.144870   -1.079131    0.017723
   12          8             0       -1.957406   -2.204492   -0.415024
   13          8             0       -3.187788   -0.660540    0.485731
   14          7             0        2.726747   -0.441611    0.043016
   15          8             0        3.668398    0.335114    0.031371
   16          8             0        2.815718   -1.657145    0.081099
 ---------------------------------------------------------------------

 SCF Done:  E(RB+HF-LYP) =  -740.809020004     A.U. after   15 cycles

  1  C    Isotropic =    25.8610   Anisotropy =   107.5279

  2  C    Isotropic =    46.1374   Anisotropy =   183.1330

  3  C    Isotropic =    30.9289   Anisotropy =   106.3228

  4  C    Isotropic =     5.7985   Anisotropy =   114.6417

  5  C    Isotropic =    53.5035   Anisotropy =   157.0847

  6  C    Isotropic =    40.0386   Anisotropy =   197.2209

  7  H    Isotropic =    22.2270   Anisotropy =     5.6119

  8  H    Isotropic =    24.3406   Anisotropy =     5.3459

  9  H    Isotropic =    22.8828   Anisotropy =     5.8300

 10  F    Isotropic =   271.4002   Anisotropy =   220.7563

 11  N    Isotropic =  -144.7555   Anisotropy =   266.4844

 12  O    Isotropic =  -338.4451   Anisotropy =   702.6135

 13  O    Isotropic =  -368.3165   Anisotropy =   750.8919

 14  N    Isotropic =  -145.2474   Anisotropy =   275.7464

 15  O    Isotropic =  -316.1727   Anisotropy =   738.3968

 16  O    Isotropic =  -318.8805   Anisotropy =   741.6352

 The electronic state is 1-A.
 Alpha  occ. eigenvalues --  -24.74798 -19.19067 -19.18999 -19.18921 -19.18913
 Alpha  occ. eigenvalues --  -14.59037 -14.58708 -10.33731 -10.28931 -10.28136
 Alpha  occ. eigenvalues --  -10.25542 -10.25306 -10.24507  -1.29208  -1.26652
 Alpha  occ. eigenvalues --   -1.26483  -1.09410  -1.09191  -0.94919  -0.86815
 Alpha  occ. eigenvalues --   -0.84255  -0.75518  -0.74421  -0.68147  -0.63426
 Alpha  occ. eigenvalues --   -0.61134  -0.59096  -0.58290  -0.57222  -0.56956
 Alpha  occ. eigenvalues --   -0.56462  -0.54394  -0.53426  -0.52909  -0.50562
 Alpha  occ. eigenvalues --   -0.48543  -0.46712  -0.43203  -0.42599  -0.35066
 Alpha  occ. eigenvalues --   -0.34919  -0.34805  -0.34465  -0.33915  -0.33018
 Alpha  occ. eigenvalues --   -0.32294  -0.31855
 Alpha virt. eigenvalues --   -0.12923  -0.12237  -0.06437  -0.03456  -0.02124
 Alpha virt. eigenvalues --   -0.00755   0.00313   0.01698   0.01739   0.03164
 Alpha virt. eigenvalues --    0.03691   0.04592   0.04903   0.05312   0.06761

 Mulliken atomic charges:
              1
     1  C    0.144211
     2  C   -0.080375
     3  C   -0.142551
     4  C    0.198572
     5  C   -0.085728
     6  C   -0.150084
     7  H    0.175369
     8  H    0.147120
     9  H    0.157101
    10  F   -0.184005
    11  N    0.440977
    12  O   -0.275467
    13  O   -0.234949
    14  N    0.473463
    15  O   -0.277347
    16  O   -0.306307
 Sum of Mulliken charges=   0.00000

 Dipole moment (field-independent basis, Debye):
    X=     0.3612    Y=     3.9085    Z=    -0.1411  Tot=     3.9277
 Quadrupole moment (field-independent basis, Debye-Ang):
   XX=   -95.9933   YY=   -71.2765   ZZ=   -70.4669
   XY=     0.7731   XZ=     0.8008   YZ=    -1.1859

 Normal termination of Gaussian 03 at Wed Apr 28 19:13:57 2010.
