 Gaussian 03, Revision E.01,
 Gaussian 03:  IA64L-G03RevE.01 11-Sep-2007

 ----------------------------------------------------------------------
 # nmr=(giao,spinspin) b3lyp/epr-II geom=connectivity integral=(grid=ul
 trafine)
 ----------------------------------------------------------------------

 ----------------------
 HJH_070910_Mol_EG2_nmr
 ----------------------
 Symbolic Z-matrix:
 Charge =  0 Multiplicity = 1

                         Standard orientation:
 ---------------------------------------------------------------------
 Center     Atomic     Atomic              Coordinates (Angstroms)
 Number     Number      Type              X           Y           Z
 ---------------------------------------------------------------------
    1          6             0       -0.394300   -1.841500   -0.433400
    2          6             0        0.933200   -2.279100   -0.904200
    3          6             0        1.923700   -1.418500   -1.084000
    4          6             0        1.745100    0.021200   -0.829400
    5          6             0       -0.505500   -0.437600    0.092200
    6          8             0       -1.361700   -2.571300   -0.519200
    7          8             0        2.549300    0.827600   -1.253700
    8          1             0        1.033300   -3.199200   -1.104100
    9          1             0        2.756400   -1.665700   -1.491800
   10          6             0        0.505500    0.437600   -0.092200
   11          6             0       -1.745100   -0.021200    0.829400
   12          6             0        0.394300    1.841500    0.433400
   13          6             0       -1.923700    1.418500    1.084000
   14          8             0       -2.549300   -0.827600    1.253700
   15          6             0       -0.933200    2.279100    0.904200
   16          8             0        1.361700    2.571300    0.519200
   17          1             0       -2.756400    1.665700    1.491800
   18          1             0       -1.033300    3.199200    1.104100
 ---------------------------------------------------------------------

 SCF Done:  E(RB+HF-LYP) =  -684.351633498     A.U. after   14 cycles

  1  C    Isotropic =    -3.6006   Anisotropy =   177.9841

  2  C    Isotropic =    63.5418   Anisotropy =   134.2203

  3  C    Isotropic =    62.8120   Anisotropy =   133.0522

  4  C    Isotropic =    -3.8773   Anisotropy =   179.8788

  5  C    Isotropic =    76.2212   Anisotropy =   105.4110

  6  O    Isotropic =  -499.3158   Anisotropy =  1323.7417

  7  O    Isotropic =  -502.5457   Anisotropy =  1327.1050

  8  H    Isotropic =    27.9292   Anisotropy =     7.9077

  9  H    Isotropic =    27.7130   Anisotropy =     7.6777

 10  C    Isotropic =    76.2212   Anisotropy =   105.4110

 11  C    Isotropic =    -3.8773   Anisotropy =   179.8788

 12  C    Isotropic =    -3.6006   Anisotropy =   177.9840

 13  C    Isotropic =    62.8120   Anisotropy =   133.0522

 14  O    Isotropic =  -502.5457   Anisotropy =  1327.1050

 15  C    Isotropic =    63.5418   Anisotropy =   134.2203

 16  O    Isotropic =  -499.3158   Anisotropy =  1323.7418

 17  H    Isotropic =    27.7130   Anisotropy =     7.6777

 18  H    Isotropic =    27.9292   Anisotropy =     7.9077

 The electronic state is 1-AG.
 Alpha  occ. eigenvalues --  -19.17680 -19.17680 -19.17665 -19.17664 -10.32473
 Alpha  occ. eigenvalues --  -10.32473 -10.32408 -10.32408 -10.27239 -10.27160
 Alpha  occ. eigenvalues --  -10.23914 -10.23914 -10.23797 -10.23797  -1.09081
 Alpha  occ. eigenvalues --   -1.08791  -1.07738  -1.07595  -0.90496  -0.86781
 Alpha  occ. eigenvalues --   -0.82656  -0.74867  -0.71818  -0.68340  -0.68013
 Alpha  occ. eigenvalues --   -0.59365  -0.57555  -0.55805  -0.53684  -0.53339
 Alpha  occ. eigenvalues --   -0.50523  -0.49506  -0.48239  -0.46230  -0.46203
 Alpha  occ. eigenvalues --   -0.46101  -0.45111  -0.44421  -0.43318  -0.43092
 Alpha  occ. eigenvalues --   -0.42093  -0.33118  -0.32678  -0.32606  -0.31962
 Alpha  occ. eigenvalues --   -0.30760  -0.29026  -0.26348
 Alpha virt. eigenvalues --   -0.16386  -0.12391  -0.05099  -0.04619   0.00513
 Alpha virt. eigenvalues --    0.01099   0.02120   0.03923   0.04114   0.04843
 Alpha virt. eigenvalues --    0.05866   0.07743   0.08476   0.09315   0.12451

 Mulliken atomic charges:
              1
     1  C    0.018677
     2  C   -0.148277
     3  C   -0.149133
     4  C    0.023767
     5  C    0.275868
     6  O   -0.199595
     7  O   -0.201686
     8  H    0.192949
     9  H    0.187428
    10  C    0.275868
    11  C    0.023767
    12  C    0.018677
    13  C   -0.149133
    14  O   -0.201686
    15  C   -0.148277
    16  O   -0.199595
    17  H    0.187428
    18  H    0.192949
 Sum of Mulliken charges=   0.00000

 Dipole moment (field-independent basis, Debye):
    X=     0.0000    Y=     0.0000    Z=     0.0000  Tot=     0.0000
 Quadrupole moment (field-independent basis, Debye-Ang):
   XX=   -86.5722   YY=   -79.4983   ZZ=   -76.0180
   XY=   -21.7868   XZ=     0.6997   YZ=     5.4056

 Normal termination of Gaussian 03 at Wed Sep  8 12:16:04 2010.
